
                                 *****************
                                 * O   R   C   A *
                                 *****************

                                            #,                                       
                                            ###                                      
                                            ####                                     
                                            #####                                    
                                            ######                                   
                                           ########,                                 
                                     ,,################,,,,,                         
                               ,,#################################,,                 
                          ,,##########################################,,             
                       ,#########################################, ''#####,          
                    ,#############################################,,   '####,        
                  ,##################################################,,,,####,       
                ,###########''''           ''''###############################       
              ,#####''   ,,,,##########,,,,          '''####'''          '####       
            ,##' ,,,,###########################,,,                        '##       
           ' ,,###''''                  '''############,,,                           
         ,,##''                                '''############,,,,        ,,,,,,###''
      ,#''                                            '''#######################'''  
     '                                                          ''''####''''         
             ,#######,   #######,   ,#######,      ##                                
            ,#'     '#,  ##    ##  ,#'     '#,    #''#        ######   ,####,        
            ##       ##  ##   ,#'  ##            #'  '#       #        #'  '#        
            ##       ##  #######   ##           ,######,      #####,   #    #        
            '#,     ,#'  ##    ##  '#,     ,#' ,#      #,         ##   #,  ,#        
             '#######'   ##     ##  '#######'  #'      '#     #####' # '####'        



                  #######################################################
                  #                        -***-                        #
                  #          Department of theory and spectroscopy      #
                  #    Directorship and core code : Frank Neese         #
                  #        Max Planck Institute fuer Kohlenforschung    #
                  #                Kaiser Wilhelm Platz 1               #
                  #                 D-45470 Muelheim/Ruhr               #
                  #                      Germany                        #
                  #                                                     #
                  #                  All rights reserved                #
                  #                        -***-                        #
                  #######################################################


                         Program Version 5.0.4 -  RELEASE  -


 With contributions from (in alphabetic order):
   Daniel Aravena         : Magnetic Suceptibility
   Michael Atanasov       : Ab Initio Ligand Field Theory (pilot matlab implementation)
   Alexander A. Auer      : GIAO ZORA, VPT2 properties, NMR spectrum
   Ute Becker             : Parallelization
   Giovanni Bistoni       : ED, misc. LED, open-shell LED, HFLD
   Martin Brehm           : Molecular dynamics
   Dmytro Bykov           : SCF Hessian
   Vijay G. Chilkuri      : MRCI spin determinant printing, contributions to CSF-ICE
   Dipayan Datta          : RHF DLPNO-CCSD density
   Achintya Kumar Dutta   : EOM-CC, STEOM-CC
   Dmitry Ganyushin       : Spin-Orbit,Spin-Spin,Magnetic field MRCI
   Miquel Garcia          : C-PCM and meta-GGA Hessian, CC/C-PCM, Gaussian charge scheme
   Yang Guo               : DLPNO-NEVPT2, F12-NEVPT2, CIM, IAO-localization
   Andreas Hansen         : Spin unrestricted coupled pair/coupled cluster methods
   Benjamin Helmich-Paris : MC-RPA, TRAH-SCF, COSX integrals
   Lee Huntington         : MR-EOM, pCC
   Robert Izsak           : Overlap fitted RIJCOSX, COSX-SCS-MP3, EOM
   Marcus Kettner         : VPT2
   Christian Kollmar      : KDIIS, OOCD, Brueckner-CCSD(T), CCSD density, CASPT2, CASPT2-K
   Simone Kossmann        : Meta GGA functionals, TD-DFT gradient, OOMP2, MP2 Hessian
   Martin Krupicka        : Initial AUTO-CI
   Lucas Lang             : DCDCAS
   Marvin Lechner         : AUTO-CI (C++ implementation), FIC-MRCC
   Dagmar Lenk            : GEPOL surface, SMD
   Dimitrios Liakos       : Extrapolation schemes; Compound Job, initial MDCI parallelization
   Dimitrios Manganas     : Further ROCIS development; embedding schemes
   Dimitrios Pantazis     : SARC Basis sets
   Anastasios Papadopoulos: AUTO-CI, single reference methods and gradients
   Taras Petrenko         : DFT Hessian,TD-DFT gradient, ASA, ECA, R-Raman, ABS, FL, XAS/XES, NRVS
   Peter Pinski           : DLPNO-MP2, DLPNO-MP2 Gradient
   Christoph Reimann      : Effective Core Potentials
   Marius Retegan         : Local ZFS, SOC
   Christoph Riplinger    : Optimizer, TS searches, QM/MM, DLPNO-CCSD(T), (RO)-DLPNO pert. Triples
   Tobias Risthaus        : Range-separated hybrids, TD-DFT gradient, RPA, STAB
   Michael Roemelt        : Original ROCIS implementation
   Masaaki Saitow         : Open-shell DLPNO-CCSD energy and density
   Barbara Sandhoefer     : DKH picture change effects
   Avijit Sen             : IP-ROCIS
   Kantharuban Sivalingam : CASSCF convergence, NEVPT2, FIC-MRCI
   Bernardo de Souza      : ESD, SOC TD-DFT
   Georgi Stoychev        : AutoAux, RI-MP2 NMR, DLPNO-MP2 response
   Willem Van den Heuvel  : Paramagnetic NMR
   Boris Wezisla          : Elementary symmetry handling
   Frank Wennmohs         : Technical directorship


 We gratefully acknowledge several colleagues who have allowed us to
 interface, adapt or use parts of their codes:
   Stefan Grimme, W. Hujo, H. Kruse, P. Pracht,  : VdW corrections, initial TS optimization,
                  C. Bannwarth, S. Ehlert          DFT functionals, gCP, sTDA/sTD-DF
   Ed Valeev, F. Pavosevic, A. Kumar             : LibInt (2-el integral package), F12 methods
   Garnet Chan, S. Sharma, J. Yang, R. Olivares  : DMRG
   Ulf Ekstrom                                   : XCFun DFT Library
   Mihaly Kallay                                 : mrcc  (arbitrary order and MRCC methods)
   Jiri Pittner, Ondrej Demel                    : Mk-CCSD
   Frank Weinhold                                : gennbo (NPA and NBO analysis)
   Christopher J. Cramer and Donald G. Truhlar   : smd solvation model
   Lars Goerigk                                  : TD-DFT with DH, B97 family of functionals
   V. Asgeirsson, H. Jonsson                     : NEB implementation
   FAccTs GmbH                                   : IRC, NEB, NEB-TS, DLPNO-Multilevel, CI-OPT
                                                   MM, QMMM, 2- and 3-layer-ONIOM, Crystal-QMMM,
                                                   LR-CPCM, SF, NACMEs, symmetry and pop. for TD-DFT,
                                                   nearIR, NL-DFT gradient (VV10), updates on ESD,
                                                   ML-optimized integration grids
   S Lehtola, MJT Oliveira, MAL Marques          : LibXC Library
   Liviu Ungur et al                             : ANISO software


 Your calculation uses the libint2 library for the computation of 2-el integrals
 For citations please refer to: http://libint.valeyev.net

 Your ORCA version has been built with support for libXC version: 5.1.0
 For citations please refer to: https://tddft.org/programs/libxc/

 This ORCA versions uses:
   CBLAS   interface :  Fast vector & matrix operations
   LAPACKE interface :  Fast linear algebra routines
   SCALAPACK package :  Parallel linear algebra routines
   Shared memory     :  Shared parallel matrices
   BLAS/LAPACK       :  OpenBLAS 0.3.15  USE64BITINT DYNAMIC_ARCH NO_AFFINITY Haswell SINGLE_THREADED
        Core in use  :  Haswell
   Copyright (c) 2011-2014, The OpenBLAS Project


Your calculation utilizes the atom-pairwise dispersion correction
based on tight binding partial charges (D4)
Cite in your paper:
E.Caldeweyher, C.Bannwarth, S.Grimme, J.Chem.Phys., (2017), 147, 034112.
E.Caldeweyher, S.Ehlert, A.Hansen, H.Neugebauer, S.Grimme, J.Chem.Phys., (2018), in progress.
   

================================================================================

----- Orbital basis set information -----
Your calculation utilizes the basis: def2-TZVP
   F. Weigend and R. Ahlrichs, Phys. Chem. Chem. Phys. 7, 3297 (2005).

----- AuxJ basis set information -----
Your calculation utilizes the auxiliary basis: def2/J
   F. Weigend, Phys. Chem. Chem. Phys. 8, 1057 (2006).

================================================================================
                                        WARNINGS
                       Please study these warnings very carefully!
================================================================================


WARNING: Geometry Optimization
  ===> : Switching off AutoStart
         For restart on a previous wavefunction, please use MOREAD

INFO   : the flag for use of the SHARK integral package has been found!

================================================================================
                                       INPUT FILE
================================================================================
NAME = IM5-neworca/IM5-neworca.inp
|  1> %pal nprocs 24 end
|  2> ! PBE0 def2-TZVP D4 CPCM(Toluene) Freq OPT
|  3> %maxcore 3000
|  4> %freq temp 433.15 end
|  5> 
|  6> * xyz 0 1
|  7> C       -1.187278000     -1.962646000     -0.617841000
|  8> N       -0.476354000     -0.731036000     -0.836552000
|  9> C        0.659762000     -0.673267000     -1.568614000
| 10> C        1.276193000      0.699398000     -1.402656000
| 11> C        0.174049000      1.520216000     -0.748052000
| 12> C        0.572540000      2.646665000      0.163644000
| 13> C        1.886360000      2.871857000      0.556976000
| 14> C        2.206574000      3.920450000      1.410561000
| 15> C        1.214987000      4.763059000      1.885062000
| 16> C       -0.100800000      4.553952000      1.491789000
| 17> C       -0.414828000      3.511201000      0.637116000
| 18> C       -0.778961000      0.490420000     -0.076453000
| 19> N       -2.175263000      0.865406000     -0.144552000
| 20> C       -2.862958000      0.867511000     -1.405629000
| 21> C       -2.802203000      0.431987000      1.033089000
| 22> C       -1.862301000      0.104118000      1.921884000
| 23> N       -0.604764000      0.313169000      1.349836000
| 24> C        0.580099000     -0.324449000      1.850430000
| 25> C        1.823447000      1.266361000     -2.696411000
| 26> O        1.128492000     -1.587906000     -2.222176000
| 27> H       -1.037606000     -2.329245000      0.401343000
| 28> H       -0.805975000     -2.699636000     -1.323939000
| 29> H       -2.258168000     -1.829038000     -0.772849000
| 30> H        2.105878000      0.541591000     -0.703570000
| 31> H       -0.416049000      1.955104000     -1.561774000
| 32> H        2.683749000      2.233345000      0.195686000
| 33> H        3.239435000      4.077268000      1.700957000
| 34> H        1.464137000      5.581047000      2.551400000
| 35> H       -0.886281000      5.209168000      1.851706000
| 36> H       -1.443585000      3.347261000      0.337316000
| 37> H       -2.962191000     -0.126007000     -1.862513000
| 38> H       -2.349189000      1.515426000     -2.118546000
| 39> H       -3.863174000      1.275736000     -1.254455000
| 40> H       -3.872064000      0.491569000      1.147642000
| 41> H       -1.960533000     -0.181073000      2.956800000
| 42> H        0.530290000     -0.345381000      2.939421000
| 43> H        0.712083000     -1.354785000      1.491982000
| 44> H        1.464534000      0.251964000      1.572550000
| 45> H        1.018256000      1.427626000     -3.418089000
| 46> H        2.317627000      2.224023000     -2.520269000
| 47> H        2.545161000      0.580034000     -3.141128000
| 48> *
| 49> 
| 50>                          ****END OF INPUT****
================================================================================

                       *****************************
                       * Geometry Optimization Run *
                       *****************************

Geometry optimization settings:
Update method            Update   .... BFGS
Choice of coordinates    CoordSys .... Z-matrix Internals
Initial Hessian          InHess   .... Almoef's Model

Convergence Tolerances:
Energy Change            TolE     ....  5.0000e-06 Eh
Max. Gradient            TolMAXG  ....  3.0000e-04 Eh/bohr
RMS Gradient             TolRMSG  ....  1.0000e-04 Eh/bohr
Max. Displacement        TolMAXD  ....  4.0000e-03 bohr
RMS Displacement         TolRMSD  ....  2.0000e-03 bohr
Strict Convergence                ....  False
------------------------------------------------------------------------------
                        ORCA OPTIMIZATION COORDINATE SETUP
------------------------------------------------------------------------------

The optimization will be done in new redundant internal coordinates
Making redundant internal coordinates   ...  (new redundants) done
Evaluating the initial hessian          ...  (Almloef) done
Evaluating the coordinates              ...  done
Calculating the B-matrix                .... done
Calculating the G-matrix                .... done
Diagonalizing the G-matrix              .... done
Small eigenvalue found = 7.884e-03
Small eigenvalue found = 1.489e-02
Small eigenvalue found = 2.574e-02
Small eigenvalue found = 2.969e-02
The first mode is                       ....  119
The number of degrees of freedom        ....  117

    -----------------------------------------------------------------
                    Redundant Internal Coordinates


    -----------------------------------------------------------------
         Definition                    Initial Value    Approx d2E/dq
    -----------------------------------------------------------------
      1. B(N   1,C   0)                  1.4388         0.467776   
      2. B(C   2,N   1)                  1.3528         0.641592   
      3. B(C   3,C   2)                  1.5138         0.396411   
      4. B(C   4,C   3)                  1.5222         0.384491   
      5. B(C   5,C   4)                  1.5030         0.412598   
      6. B(C   6,C   5)                  1.3898         0.625255   
      7. B(C   7,C   6)                  1.3895         0.625961   
      8. B(C   8,C   7)                  1.3851         0.636243   
      9. B(C   9,C   8)                  1.3891         0.626794   
     10. B(C  10,C   9)                  1.3843         0.637914   
     11. B(C  10,C   5)                  1.3952         0.613046   
     12. B(C  11,C   4)                  1.5556         0.340099   
     13. B(C  11,N   1)                  1.4701         0.416904   
     14. B(N  12,C  11)                  1.4474         0.453240   
     15. B(C  13,N  12)                  1.4364         0.471898   
     16. B(C  14,N  12)                  1.4028         0.533965   
     17. B(C  15,C  14)                  1.3345         0.766121   
     18. B(N  16,C  15)                  1.3973         0.544866   
     19. B(N  16,C  11)                  1.4478         0.452578   
     20. B(C  17,N  16)                  1.4356         0.473223   
     21. B(C  18,C   3)                  1.5148         0.394972   
     22. B(O  19,C   2)                  1.2180         1.052838   
     23. B(H  20,C   0)                  1.0934         0.355625   
     24. B(H  21,C   0)                  1.0896         0.360695   
     25. B(H  22,C   0)                  1.0903         0.359746   
     26. B(H  23,C   3)                  1.0964         0.351786   
     27. B(H  24,C   4)                  1.0952         0.353272   
     28. B(H  25,C   6)                  1.0835         0.368749   
     29. B(H  26,C   7)                  1.0843         0.367709   
     30. B(H  27,C   8)                  1.0841         0.368044   
     31. B(H  28,C   9)                  1.0844         0.367644   
     32. B(H  29,C  10)                  1.0840         0.368100   
     33. B(H  30,C  13)                  1.0980         0.349633   
     34. B(H  31,C  13)                  1.0918         0.357741   
     35. B(H  32,C  13)                  1.0908         0.358990   
     36. B(H  33,C  14)                  1.0776         0.376849   
     37. B(H  34,C  15)                  1.0780         0.376361   
     38. B(H  35,C  17)                  1.0903         0.359663   
     39. B(H  36,C  17)                  1.0989         0.348566   
     40. B(H  37,C  17)                  1.0916         0.357927   
     41. B(H  38,C  18)                  1.0932         0.355849   
     42. B(H  39,C  18)                  1.0920         0.357529   
     43. B(H  40,C  18)                  1.0907         0.359137   
     44. A(N   1,C   0,H  22)          111.0277         0.334514   
     45. A(N   1,C   0,H  20)          111.1652         0.333874   
     46. A(H  20,C   0,H  22)          107.9426         0.290224   
     47. A(H  20,C   0,H  21)          109.2310         0.290344   
     48. A(N   1,C   0,H  21)          107.9136         0.334660   
     49. A(H  21,C   0,H  22)          109.5420         0.290870   
     50. A(C   2,N   1,C  11)          114.6568         0.401665   
     51. A(C   0,N   1,C   2)          122.2620         0.409920   
     52. A(C   0,N   1,C  11)          122.0670         0.380086   
     53. A(N   1,C   2,O  19)          125.5582         0.474604   
     54. A(C   3,C   2,O  19)          125.6649         0.437658   
     55. A(N   1,C   2,C   3)          108.7460         0.400683   
     56. A(C   2,C   3,C   4)          103.9611         0.368879   
     57. A(C   2,C   3,C  18)          113.1316         0.370588   
     58. A(C  18,C   3,H  23)          108.9695         0.326048   
     59. A(C   2,C   3,H  23)          104.3320         0.326243   
     60. A(C   4,C   3,H  23)          110.5697         0.324609   
     61. A(C   4,C   3,C  18)          115.2798         0.368649   
     62. A(C   3,C   4,H  24)          106.5428         0.324834   
     63. A(C   5,C   4,H  24)          107.2141         0.328630   
     64. A(C  11,C   4,H  24)          104.6880         0.318375   
     65. A(C   3,C   4,C  11)          105.8001         0.359340   
     66. A(C   3,C   4,C   5)          118.2325         0.371426   
     67. A(C   5,C   4,C  11)          113.3728         0.363692   
     68. A(C   4,C   5,C   6)          122.9401         0.404283   
     69. A(C   6,C   5,C  10)          118.2009         0.433844   
     70. A(C   4,C   5,C  10)          118.8588         0.402879   
     71. A(C   5,C   6,H  25)          120.3865         0.354838   
     72. A(C   5,C   6,C   7)          120.9302         0.435475   
     73. A(C   7,C   6,H  25)          118.6820         0.354906   
     74. A(C   6,C   7,C   8)          120.3029         0.436844   
     75. A(C   6,C   7,H  26)          119.5502         0.354736   
     76. A(C   8,C   7,H  26)          120.1467         0.355718   
     77. A(C   7,C   8,H  27)          120.3366         0.355773   
     78. A(C   9,C   8,H  27)          120.3511         0.354871   
     79. A(C   7,C   8,C   9)          119.3112         0.436949   
     80. A(C  10,C   9,H  28)          119.7190         0.355865   
     81. A(C   8,C   9,H  28)          120.0797         0.354805   
     82. A(C   8,C   9,C  10)          120.2012         0.437156   
     83. A(C   9,C  10,H  29)          119.9960         0.355940   
     84. A(C   5,C  10,H  29)          118.9507         0.353548   
     85. A(C   5,C  10,C   9)          121.0470         0.435412   
     86. A(N  12,C  11,N  16)          101.1947         0.383435   
     87. A(C   4,C  11,N  16)          115.6371         0.367194   
     88. A(N   1,C  11,N  16)          112.5114         0.377918   
     89. A(C   4,C  11,N  12)          113.5283         0.367286   
     90. A(N   1,C  11,N  12)          112.9236         0.378014   
     91. A(N   1,C  11,C   4)          101.5781         0.362072   
     92. A(C  13,N  12,C  14)          121.5690         0.397468   
     93. A(C  11,N  12,C  14)          108.1564         0.394664   
     94. A(C  11,N  12,C  13)          120.2354         0.386234   
     95. A(H  31,C  13,H  32)          107.4510         0.290399   
     96. A(H  30,C  13,H  32)          108.2648         0.289356   
     97. A(N  12,C  13,H  32)          108.5340         0.334885   
     98. A(H  30,C  13,H  31)          107.9258         0.289198   
     99. A(N  12,C  13,H  31)          110.4173         0.334691   
    100. A(N  12,C  13,H  30)          114.0321         0.333419   
    101. A(N  12,C  14,H  33)          121.0557         0.344652   
    102. A(N  12,C  14,C  15)          108.6788         0.436081   
    103. A(C  15,C  14,H  33)          129.9430         0.368721   
    104. A(C  14,C  15,N  16)          108.9324         0.437672   
    105. A(N  16,C  15,H  34)          120.9739         0.345749   
    106. A(C  14,C  15,H  34)          129.8090         0.368639   
    107. A(C  15,N  16,C  17)          122.2480         0.399079   
    108. A(C  11,N  16,C  17)          119.8145         0.386324   
    109. A(C  11,N  16,C  15)          108.2618         0.395964   
    110. A(H  36,C  17,H  37)          108.3456         0.289083   
    111. A(H  35,C  17,H  37)          107.5409         0.290508   
    112. A(N  16,C  17,H  37)          110.2056         0.334876   
    113. A(H  35,C  17,H  36)          108.2573         0.289303   
    114. A(N  16,C  17,H  36)          113.6924         0.333405   
    115. A(N  16,C  17,H  35)          108.6077         0.335145   
    116. A(H  39,C  18,H  40)          108.5522         0.290390   
    117. A(H  38,C  18,H  40)          108.1202         0.290176   
    118. A(C   3,C  18,H  40)          110.5946         0.327160   
    119. A(H  38,C  18,H  39)          108.0857         0.289971   
    120. A(C   3,C  18,H  39)          110.7305         0.326918   
    121. A(C   3,C  18,H  38)          110.6661         0.326664   
    122. D(C   2,N   1,C   0,H  20)    105.5233         0.018691   
    123. D(C  11,N   1,C   0,H  21)    177.9025         0.018691   
    124. D(C  11,N   1,C   0,H  20)    -62.3385         0.018691   
    125. D(C  11,N   1,C   0,H  22)     57.8439         0.018691   
    126. D(C   2,N   1,C   0,H  21)    -14.2358         0.018691   
    127. D(C   2,N   1,C   0,H  22)   -134.2943         0.018691   
    128. D(O  19,C   2,N   1,C   0)      7.8318         0.033519   
    129. D(O  19,C   2,N   1,C  11)    176.5248         0.033519   
    130. D(C   3,C   2,N   1,C  11)     -1.5442         0.033519   
    131. D(C   3,C   2,N   1,C   0)   -170.2372         0.033519   
    132. D(C  18,C   3,C   2,O  19)     43.1245         0.011672   
    133. D(C  18,C   3,C   2,N   1)   -138.8090         0.011672   
    134. D(H  23,C   3,C   2,N   1)    102.8980         0.011672   
    135. D(H  23,C   3,C   2,O  19)    -75.1684         0.011672   
    136. D(C   4,C   3,C   2,O  19)    168.9070         0.011672   
    137. D(C   4,C   3,C   2,N   1)    -13.0266         0.011672   
    138. D(C  11,C   4,C   3,C   2)     21.6197         0.011768   
    139. D(H  24,C   4,C   3,C   2)    -89.4153         0.011768   
    140. D(C  11,C   4,C   3,H  23)    -89.8334         0.011768   
    141. D(H  24,C   4,C   3,C  18)     34.9928         0.011768   
    142. D(C  11,C   4,C   3,C  18)    146.0279         0.011768   
    143. D(H  24,C   4,C   3,H  23)    159.1315         0.011768   
    144. D(C   5,C   4,C   3,H  23)     38.4752         0.011768   
    145. D(C   5,C   4,C   3,C   2)    149.9283         0.011768   
    146. D(C   5,C   4,C   3,C  18)    -85.6636         0.011768   
    147. D(C  10,C   5,C   4,C  11)    -63.2909         0.012603   
    148. D(C  10,C   5,C   4,C   3)    172.0481         0.012603   
    149. D(C  10,C   5,C   4,H  24)     51.7377         0.012603   
    150. D(C   6,C   5,C   4,C   3)     -7.7633         0.012603   
    151. D(C   6,C   5,C   4,C  11)    116.8978         0.012603   
    152. D(C   6,C   5,C   4,H  24)   -128.0736         0.012603   
    153. D(H  25,C   6,C   5,C   4)      0.9486         0.027080   
    154. D(C   7,C   6,C   5,C  10)      0.7051         0.027080   
    155. D(C   7,C   6,C   5,C   4)   -179.4823         0.027080   
    156. D(H  25,C   6,C   5,C  10)   -178.8639         0.027080   
    157. D(H  26,C   7,C   6,H  25)     -0.2606         0.027145   
    158. D(H  26,C   7,C   6,C   5)   -179.8369         0.027145   
    159. D(C   8,C   7,C   6,H  25)    179.5484         0.027145   
    160. D(C   8,C   7,C   6,C   5)     -0.0279         0.027145   
    161. D(H  27,C   8,C   7,H  26)     -0.2202         0.028103   
    162. D(H  27,C   8,C   7,C   6)    179.9720         0.028103   
    163. D(C   9,C   8,C   7,H  26)    179.3928         0.028103   
    164. D(C   9,C   8,C   7,C   6)     -0.4151         0.028103   
    165. D(H  28,C   9,C   8,H  27)     -0.0751         0.027222   
    166. D(H  28,C   9,C   8,C   7)   -179.6880         0.027222   
    167. D(C  10,C   9,C   8,H  27)    179.7781         0.027222   
    168. D(C  10,C   9,C   8,C   7)      0.1652         0.027222   
    169. D(H  29,C  10,C   9,C   8)    179.6150         0.028261   
    170. D(C   5,C  10,C   9,C   8)      0.5331         0.028261   
    171. D(H  29,C  10,C   5,C   6)    179.9506         0.025971   
    172. D(H  29,C  10,C   5,C   4)      0.1302         0.025971   
    173. D(C   9,C  10,C   5,C   6)     -0.9581         0.025971   
    174. D(C   5,C  10,C   9,H  28)   -179.6132         0.028261   
    175. D(H  29,C  10,C   9,H  28)     -0.5313         0.028261   
    176. D(C   9,C  10,C   5,C   4)    179.2215         0.025971   
    177. D(N   1,C  11,C   4,C   3)    -21.9888         0.009365   
    178. D(N  16,C  11,N   1,C   2)   -109.3061         0.014822   
    179. D(N  16,C  11,N   1,C   0)     59.4114         0.014822   
    180. D(N  12,C  11,N   1,C   2)    136.9000         0.014822   
    181. D(N  12,C  11,N   1,C   0)    -54.3825         0.014822   
    182. D(C   4,C  11,N   1,C   0)   -176.3255         0.014822   
    183. D(N   1,C  11,C   4,C   5)   -153.1262         0.009365   
    184. D(C   4,C  11,N   1,C   2)     14.9570         0.014822   
    185. D(N  16,C  11,C   4,H  24)   -147.5217         0.009365   
    186. D(N  16,C  11,C   4,C   5)    -30.9978         0.009365   
    187. D(N  16,C  11,C   4,C   3)    100.1396         0.009365   
    188. D(N  12,C  11,C   4,H  24)    -31.1734         0.009365   
    189. D(N  12,C  11,C   4,C   5)     85.3505         0.009365   
    190. D(N  12,C  11,C   4,C   3)   -143.5122         0.009365   
    191. D(N   1,C  11,C   4,H  24)     90.3499         0.009365   
    192. D(C  14,N  12,C  11,N  16)    -20.7609         0.017528   
    193. D(C  14,N  12,C  11,C   4)   -145.3178         0.017528   
    194. D(C  14,N  12,C  11,N   1)     99.7337         0.017528   
    195. D(C  13,N  12,C  11,N  16)   -166.7412         0.017528   
    196. D(C  13,N  12,C  11,C   4)     68.7018         0.017528   
    197. D(C  13,N  12,C  11,N   1)    -46.2467         0.017528   
    198. D(H  32,C  13,N  12,C  14)     44.4240         0.019030   
    199. D(H  32,C  13,N  12,C  11)   -174.1820         0.019030   
    200. D(H  31,C  13,N  12,C  14)    161.9591         0.019030   
    201. D(H  31,C  13,N  12,C  11)    -56.6468         0.019030   
    202. D(H  30,C  13,N  12,C  14)    -76.3343         0.019030   
    203. D(H  30,C  13,N  12,C  11)     65.0598         0.019030   
    204. D(H  33,C  14,N  12,C  13)    -26.6865         0.022657   
    205. D(H  33,C  14,N  12,C  11)   -172.1224         0.022657   
    206. D(C  15,C  14,N  12,C  13)    159.2179         0.022657   
    207. D(C  15,C  14,N  12,C  11)     13.7819         0.022657   
    208. D(H  34,C  15,C  14,H  33)      0.3588         0.042034   
    209. D(H  34,C  15,C  14,N  12)    173.7585         0.042034   
    210. D(N  16,C  15,C  14,H  33)   -173.4394         0.042034   
    211. D(N  16,C  15,C  14,N  12)     -0.0397         0.042034   
    212. D(C  17,N  16,C  15,H  34)     26.0164         0.023639   
    213. D(C  17,N  16,C  15,C  14)   -159.5379         0.023639   
    214. D(C  11,N  16,C  15,H  34)    171.8327         0.023639   
    215. D(C  11,N  16,C  15,C  14)    -13.7217         0.023639   
    216. D(C  17,N  16,C  11,N  12)    167.5579         0.017476   
    217. D(C  17,N  16,C  11,C   4)    -69.3243         0.017476   
    218. D(C  17,N  16,C  11,N   1)     46.7720         0.017476   
    219. D(C  15,N  16,C  11,N  12)     20.7654         0.017476   
    220. D(C  15,N  16,C  11,C   4)    143.8832         0.017476   
    221. D(C  15,N  16,C  11,N   1)   -100.0205         0.017476   
    222. D(H  37,C  17,N  16,C  15)   -156.5392         0.019140   
    223. D(H  37,C  17,N  16,C  11)     61.4088         0.019140   
    224. D(H  36,C  17,N  16,C  15)     81.6067         0.019140   
    225. D(H  36,C  17,N  16,C  11)    -60.4453         0.019140   
    226. D(H  35,C  17,N  16,C  15)    -38.9727         0.019140   
    227. D(H  35,C  17,N  16,C  11)    178.9753         0.019140   
    228. D(H  40,C  18,C   3,H  23)     59.7727         0.012389   
    229. D(H  40,C  18,C   3,C   4)   -175.2534         0.012389   
    230. D(H  40,C  18,C   3,C   2)    -55.7886         0.012389   
    231. D(H  39,C  18,C   3,H  23)    -60.6011         0.012389   
    232. D(H  39,C  18,C   3,C   4)     64.3728         0.012389   
    233. D(H  39,C  18,C   3,C   2)   -176.1624         0.012389   
    234. D(H  38,C  18,C   3,H  23)    179.5631         0.012389   
    235. D(H  38,C  18,C   3,C   4)    -55.4630         0.012389   
    236. D(H  38,C  18,C   3,C   2)     64.0018         0.012389   
    -----------------------------------------------------------------

Number of atoms                         .... 41
Number of degrees of freedom            .... 236

         *************************************************************
         *                GEOMETRY OPTIMIZATION CYCLE   1            *
         *************************************************************
---------------------------------
CARTESIAN COORDINATES (ANGSTROEM)
---------------------------------
  C     -1.187278   -1.962646   -0.617841
  N     -0.476354   -0.731036   -0.836552
  C      0.659762   -0.673267   -1.568614
  C      1.276193    0.699398   -1.402656
  C      0.174049    1.520216   -0.748052
  C      0.572540    2.646665    0.163644
  C      1.886360    2.871857    0.556976
  C      2.206574    3.920450    1.410561
  C      1.214987    4.763059    1.885062
  C     -0.100800    4.553952    1.491789
  C     -0.414828    3.511201    0.637116
  C     -0.778961    0.490420   -0.076453
  N     -2.175263    0.865406   -0.144552
  C     -2.862958    0.867511   -1.405629
  C     -2.802203    0.431987    1.033089
  C     -1.862301    0.104118    1.921884
  N     -0.604764    0.313169    1.349836
  C      0.580099   -0.324449    1.850430
  C      1.823447    1.266361   -2.696411
  O      1.128492   -1.587906   -2.222176
  H     -1.037606   -2.329245    0.401343
  H     -0.805975   -2.699636   -1.323939
  H     -2.258168   -1.829038   -0.772849
  H      2.105878    0.541591   -0.703570
  H     -0.416049    1.955104   -1.561774
  H      2.683749    2.233345    0.195686
  H      3.239435    4.077268    1.700957
  H      1.464137    5.581047    2.551400
  H     -0.886281    5.209168    1.851706
  H     -1.443585    3.347261    0.337316
  H     -2.962191   -0.126007   -1.862513
  H     -2.349189    1.515426   -2.118546
  H     -3.863174    1.275736   -1.254455
  H     -3.872064    0.491569    1.147642
  H     -1.960533   -0.181073    2.956800
  H      0.530290   -0.345381    2.939421
  H      0.712083   -1.354785    1.491982
  H      1.464534    0.251964    1.572550
  H      1.018256    1.427626   -3.418089
  H      2.317627    2.224023   -2.520269
  H      2.545161    0.580034   -3.141128

----------------------------
CARTESIAN COORDINATES (A.U.)
----------------------------
  NO LB      ZA    FRAG     MASS         X           Y           Z
   0 C     6.0000    0    12.011   -2.243630   -3.708863   -1.167550
   1 N     7.0000    0    14.007   -0.900179   -1.381458   -1.580854
   2 C     6.0000    0    12.011    1.246769   -1.272290   -2.964251
   3 C     6.0000    0    12.011    2.411655    1.321671   -2.650636
   4 C     6.0000    0    12.011    0.328905    2.872792   -1.413613
   5 C     6.0000    0    12.011    1.081944    5.001472    0.309242
   6 C     6.0000    0    12.011    3.564704    5.427023    1.052532
   7 C     6.0000    0    12.011    4.169821    7.408577    2.665574
   8 C     6.0000    0    12.011    2.295993    9.000877    3.562251
   9 C     6.0000    0    12.011   -0.190484    8.605722    2.819073
  10 C     6.0000    0    12.011   -0.783911    6.635208    1.203975
  11 C     6.0000    0    12.011   -1.472023    0.926759   -0.144475
  12 N     7.0000    0    14.007   -4.110651    1.635380   -0.273164
  13 C     6.0000    0    12.011   -5.410207    1.639358   -2.656254
  14 C     6.0000    0    12.011   -5.295396    0.816337    1.952255
  15 C     6.0000    0    12.011   -3.519239    0.196755    3.631834
  16 N     7.0000    0    14.007   -1.142838    0.591804    2.550820
  17 C     6.0000    0    12.011    1.096228   -0.613120    3.496806
  18 C     6.0000    0    12.011    3.445815    2.393075   -5.095478
  19 O     8.0000    0    15.999    2.132541   -3.000707   -4.199304
  20 H     1.0000    0     1.008   -1.960791   -4.401635    0.758428
  21 H     1.0000    0     1.008   -1.523072   -5.101573   -2.501882
  22 H     1.0000    0     1.008   -4.267319   -3.456381   -1.460473
  23 H     1.0000    0     1.008    3.979533    1.023459   -1.329555
  24 H     1.0000    0     1.008   -0.786219    3.694611   -2.951325
  25 H     1.0000    0     1.008    5.071551    4.220410    0.369793
  26 H     1.0000    0     1.008    6.121645    7.704920    3.214343
  27 H     1.0000    0     1.008    2.766818   10.546650    4.821447
  28 H     1.0000    0     1.008   -1.674828    9.843901    3.499217
  29 H     1.0000    0     1.008   -2.727980    6.325407    0.637435
  30 H     1.0000    0     1.008   -5.597730   -0.238119   -3.519639
  31 H     1.0000    0     1.008   -4.439324    2.863740   -4.003472
  32 H     1.0000    0     1.008   -7.300341    2.410792   -2.370576
  33 H     1.0000    0     1.008   -7.317141    0.928931    2.168729
  34 H     1.0000    0     1.008   -3.704870   -0.342178    5.587542
  35 H     1.0000    0     1.008    1.002103   -0.652676    5.554701
  36 H     1.0000    0     1.008    1.345642   -2.560173    2.819437
  37 H     1.0000    0     1.008    2.767568    0.476143    2.971689
  38 H     1.0000    0     1.008    1.924225    2.697822   -6.459252
  39 H     1.0000    0     1.008    4.379680    4.202794   -4.762618
  40 H     1.0000    0     1.008    4.809657    1.096105   -5.935872

--------------------------------
INTERNAL COORDINATES (ANGSTROEM)
--------------------------------
 C      0   0   0     0.000000000000     0.00000000     0.00000000
 N      1   0   0     1.438787902158     0.00000000     0.00000000
 C      2   1   0     1.352779211350   122.26196786     0.00000000
 C      3   2   1     1.513848882072   108.74604447   189.76276846
 C      4   3   2     1.522159644280   103.96114955   346.97342067
 C      5   4   3     1.502954431478   118.23249583   149.92827336
 C      6   5   4     1.389800162429   122.94005330   352.23674818
 C      7   6   5     1.389493302492   120.93015091   180.51767096
 C      8   7   6     1.385058087031   120.30285460   359.97209343
 C      9   8   7     1.389130958314   119.31121225   359.58492750
 C     10   9   8     1.384344310392   120.20120913     0.16517781
 C      2   1   3     1.470127969323   122.06704873   192.13821800
 N     12   2   1     1.447380823834   112.92356496   305.61749988
 C     13  12   2     1.436399681140   120.23540512   313.75334170
 C     13  12   2     1.402763029896   108.15638712    99.73368001
 C     15  13  12     1.334492563782   108.67879879    13.78194814
 N     16  15  13     1.397261801265   108.93244562   359.96033378
 C     17  16  15     1.435636233706   122.24802049   200.46206469
 C      4   3   2     1.514838599954   113.13161335   221.19095620
 O      3   2   1     1.217955500445   125.55816182     7.83176293
 H      1   2   3     1.093404115705   111.16519843   105.52332110
 H      1   2   3     1.089550652110   107.91356789   345.76424137
 H      1   2   3     1.090267843160   111.02768390   225.70571896
 H      4   3   2     1.096358282620   104.33195568   102.89802499
 H      5   4   3     1.095210808672   106.54277756   270.58465253
 H      7   6   5     1.083539226593   120.38646479     0.94859676
 H      8   7   6     1.084307874757   119.55018001   180.16308511
 H      9   8   7     1.084060155567   120.33655273   179.97195890
 H     10   9   8     1.084356332073   120.07967580   180.31197694
 H     11  10   9     1.084019062862   119.99604355   179.61495633
 H     14  13  12     1.098029231883   114.03213264    65.05981444
 H     14  13  12     1.091788936322   110.41731779   303.35320152
 H     14  13  12     1.090840627937   108.53399296   185.81803299
 H     15  13  12     1.077624685990   121.05567079   187.87755572
 H     16  15  13     1.077977068105   129.80900378   173.75846258
 H     18  17  16     1.090330446785   108.60770205   321.02728155
 H     18  17  16     1.098861691868   113.69237714    81.60672059
 H     18  17  16     1.091647612645   110.20559184   203.46076552
 H     19   4   3     1.093232858265   110.66606110    64.00178106
 H     19   4   3     1.091950723617   110.73048791   183.83760276
 H     19   4   3     1.090728682493   110.59457356   304.21135801

---------------------------
INTERNAL COORDINATES (A.U.)
---------------------------
 C      0   0   0     0.000000000000     0.00000000     0.00000000
 N      1   0   0     2.718915099878     0.00000000     0.00000000
 C      2   1   0     2.556382229114   122.26196786     0.00000000
 C      3   2   1     2.860759795259   108.74604447   189.76276846
 C      4   3   2     2.876464859797   103.96114955   346.97342067
 C      5   4   3     2.840172267256   118.23249583   149.92827336
 C      6   5   4     2.626341687870   122.94005330   352.23674818
 C      7   6   5     2.625761806628   120.93015091   180.51767096
 C      8   7   6     2.617380464062   120.30285460   359.97209343
 C      9   8   7     2.625077075365   119.31121225   359.58492750
 C     10   9   8     2.616031621692   120.20120913     0.16517781
 C      2   1   3     2.778139243838   122.06704873   192.13821800
 N     12   2   1     2.735153368535   112.92356496   305.61749988
 C     13  12   2     2.714402016206   120.23540512   313.75334170
 C     13  12   2     2.650837957292   108.15638712    99.73368001
 C     15  13  12     2.521825473303   108.67879879    13.78194814
 N     16  15  13     2.640442141780   108.93244562   359.96033378
 C     17  16  15     2.712959309638   122.24802049   200.46206469
 C      4   3   2     2.862630091005   113.13161335   221.19095620
 O      3   2   1     2.301602339145   125.55816182     7.83176293
 H      1   2   3     2.066234332385   111.16519843   105.52332110
 H      1   2   3     2.058952341523   107.91356789   345.76424137
 H      1   2   3     2.060307636193   111.02768390   225.70571896
 H      4   3   2     2.071816898808   104.33195568   102.89802499
 H      5   4   3     2.069648487301   106.54277756   270.58465253
 H      7   6   5     2.047592393621   120.38646479     0.94859676
 H      8   7   6     2.049044928146   119.55018001   180.16308511
 H      9   8   7     2.048576806718   120.33655273   179.97195890
 H     10   9   8     2.049136499201   120.07967580   180.31197694
 H     11  10   9     2.048499152760   119.99604355   179.61495633
 H     14  13  12     2.074974535298   114.03213264    65.05981444
 H     14  13  12     2.063182085694   110.41731779   303.35320152
 H     14  13  12     2.061390042555   108.53399296   185.81803299
 H     15  13  12     2.036415531673   121.05567079   187.87755572
 H     16  15  13     2.037081437366   129.80900378   173.75846258
 H     18  17  16     2.060425939899   108.60770205   321.02728155
 H     18  17  16     2.076547656689   113.69237714    81.60672059
 H     18  17  16     2.062915022648   110.20559184   203.46076552
 H     19   4   3     2.065910702725   110.66606110    64.00178106
 H     19   4   3     2.063487819374   110.73048791   183.83760276
 H     19   4   3     2.061178496325   110.59457356   304.21135801

---------------------
BASIS SET INFORMATION
---------------------
There are 4 groups of distinct atoms

 Group   1 Type C   : 11s6p2d1f contracted to 5s3p2d1f pattern {62111/411/11/1}
 Group   2 Type N   : 11s6p2d1f contracted to 5s3p2d1f pattern {62111/411/11/1}
 Group   3 Type O   : 11s6p2d1f contracted to 5s3p2d1f pattern {62111/411/11/1}
 Group   4 Type H   : 5s1p contracted to 3s1p pattern {311/1}

Atom   0C    basis set group =>   1
Atom   1N    basis set group =>   2
Atom   2C    basis set group =>   1
Atom   3C    basis set group =>   1
Atom   4C    basis set group =>   1
Atom   5C    basis set group =>   1
Atom   6C    basis set group =>   1
Atom   7C    basis set group =>   1
Atom   8C    basis set group =>   1
Atom   9C    basis set group =>   1
Atom  10C    basis set group =>   1
Atom  11C    basis set group =>   1
Atom  12N    basis set group =>   2
Atom  13C    basis set group =>   1
Atom  14C    basis set group =>   1
Atom  15C    basis set group =>   1
Atom  16N    basis set group =>   2
Atom  17C    basis set group =>   1
Atom  18C    basis set group =>   1
Atom  19O    basis set group =>   3
Atom  20H    basis set group =>   4
Atom  21H    basis set group =>   4
Atom  22H    basis set group =>   4
Atom  23H    basis set group =>   4
Atom  24H    basis set group =>   4
Atom  25H    basis set group =>   4
Atom  26H    basis set group =>   4
Atom  27H    basis set group =>   4
Atom  28H    basis set group =>   4
Atom  29H    basis set group =>   4
Atom  30H    basis set group =>   4
Atom  31H    basis set group =>   4
Atom  32H    basis set group =>   4
Atom  33H    basis set group =>   4
Atom  34H    basis set group =>   4
Atom  35H    basis set group =>   4
Atom  36H    basis set group =>   4
Atom  37H    basis set group =>   4
Atom  38H    basis set group =>   4
Atom  39H    basis set group =>   4
Atom  40H    basis set group =>   4
---------------------------------
AUXILIARY/J BASIS SET INFORMATION
---------------------------------
There are 4 groups of distinct atoms

 Group   1 Type C   : 12s5p4d2f1g contracted to 6s4p3d1f1g pattern {711111/2111/211/2/1}
 Group   2 Type N   : 12s5p4d2f1g contracted to 6s4p3d1f1g pattern {711111/2111/211/2/1}
 Group   3 Type O   : 12s5p4d2f1g contracted to 6s4p3d1f1g pattern {711111/2111/211/2/1}
 Group   4 Type H   : 5s2p1d contracted to 3s1p1d pattern {311/2/1}

Atom   0C    basis set group =>   1
Atom   1N    basis set group =>   2
Atom   2C    basis set group =>   1
Atom   3C    basis set group =>   1
Atom   4C    basis set group =>   1
Atom   5C    basis set group =>   1
Atom   6C    basis set group =>   1
Atom   7C    basis set group =>   1
Atom   8C    basis set group =>   1
Atom   9C    basis set group =>   1
Atom  10C    basis set group =>   1
Atom  11C    basis set group =>   1
Atom  12N    basis set group =>   2
Atom  13C    basis set group =>   1
Atom  14C    basis set group =>   1
Atom  15C    basis set group =>   1
Atom  16N    basis set group =>   2
Atom  17C    basis set group =>   1
Atom  18C    basis set group =>   1
Atom  19O    basis set group =>   3
Atom  20H    basis set group =>   4
Atom  21H    basis set group =>   4
Atom  22H    basis set group =>   4
Atom  23H    basis set group =>   4
Atom  24H    basis set group =>   4
Atom  25H    basis set group =>   4
Atom  26H    basis set group =>   4
Atom  27H    basis set group =>   4
Atom  28H    basis set group =>   4
Atom  29H    basis set group =>   4
Atom  30H    basis set group =>   4
Atom  31H    basis set group =>   4
Atom  32H    basis set group =>   4
Atom  33H    basis set group =>   4
Atom  34H    basis set group =>   4
Atom  35H    basis set group =>   4
Atom  36H    basis set group =>   4
Atom  37H    basis set group =>   4
Atom  38H    basis set group =>   4
Atom  39H    basis set group =>   4
Atom  40H    basis set group =>   4


           ************************************************************
           *        Program running with 24 parallel MPI-processes    *
           *              working on a common directory               *
           ************************************************************
------------------------------------------------------------------------------
                           ORCA GTO INTEGRAL CALCULATION
                           -- RI-GTO INTEGRALS CHOSEN --
------------------------------------------------------------------------------
------------------------------------------------------------------------------
                   ___                                                        
                  /   \      - P O W E R E D   B Y -                         
                 /     \                                                     
                 |  |  |   _    _      __       _____    __    __             
                 |  |  |  | |  | |    /  \     |  _  \  |  |  /  |          
                  \  \/   | |  | |   /    \    | | | |  |  | /  /          
                 / \  \   | |__| |  /  /\  \   | |_| |  |  |/  /          
                |  |  |   |  __  | /  /__\  \  |    /   |      \           
                |  |  |   | |  | | |   __   |  |    \   |  |\   \          
                \     /   | |  | | |  |  |  |  | |\  \  |  | \   \       
                 \___/    |_|  |_| |__|  |__|  |_| \__\ |__|  \__/        
                                                                              
                      - O R C A' S   B I G   F R I E N D -                    
                                      &                                       
                       - I N T E G R A L  F E E D E R -                       
                                                                              
 v1 FN, 2020, v2 2021                                                         
------------------------------------------------------------------------------


Reading SHARK input file IM5-neworca/IM5-neworca.SHARKINP.tmp ... ok
----------------------
SHARK INTEGRAL PACKAGE
----------------------

Number of atoms                             ...     41
Number of basis functions                   ...    746
Number of shells                            ...    304
Maximum angular momentum                    ...      3
Integral batch strategy                     ... SHARK/LIBINT Hybrid
RI-J (if used) integral strategy            ... SPLIT-RIJ (Revised 2003 algorithm where possible)
Printlevel                                  ...      1
Contraction scheme used                     ... SEGMENTED contraction
Coulomb Range Separation                    ... NOT USED
Exchange Range Separation                   ... NOT USED
Finite Nucleus Model                        ... NOT USED
Auxiliary Coulomb fitting basis             ... AVAILABLE
   # of basis functions in Aux-J            ...   1211
   # of shells in Aux-J                     ...    405
   Maximum angular momentum in Aux-J        ...      4
Auxiliary J/K fitting basis                 ... NOT available
Auxiliary Correlation fitting basis         ... NOT available
Auxiliary 'external' fitting basis          ... NOT available
Integral threshold                          ...     2.500000e-11
Primitive cut-off                           ...     2.500000e-12
Primitive pair pre-selection threshold      ...     2.500000e-12

Calculating pre-screening integrals         ... done (  0.1 sec) Dimension = 304
Organizing shell pair data                  ... done (  0.5 sec)
Shell pair information
Total number of shell pairs                 ...     46360
Shell pairs after pre-screening             ...     37238
Total number of primitive shell pairs       ...    139104
Primitive shell pairs kept                  ...     75913
          la=0 lb=0:  10358 shell pairs
          la=1 lb=0:  10728 shell pairs
          la=1 lb=1:   2854 shell pairs
          la=2 lb=0:   5193 shell pairs
          la=2 lb=1:   2774 shell pairs
          la=2 lb=2:    703 shell pairs
          la=3 lb=0:   2489 shell pairs
          la=3 lb=1:   1322 shell pairs
          la=3 lb=2:    648 shell pairs
          la=3 lb=3:    169 shell pairs

Calculating one electron integrals          ... done (  0.1 sec)
Calculating RI/J V-Matrix + Cholesky decomp.... done (  0.2 sec)
Calculating Nuclear repulsion               ... done (  0.0 sec) ENN=   1690.386424850636 Eh

SHARK setup successfully completed in   2.0 seconds

Maximum memory used throughout the entire GTOINT-calculation: 55.2 MB


           ************************************************************
           *        Program running with 24 parallel MPI-processes    *
           *              working on a common directory               *
           ************************************************************
-------------------------------------------------------------------------------
                                 ORCA SCF
-------------------------------------------------------------------------------

------------
SCF SETTINGS
------------
Hamiltonian:
 Density Functional     Method          .... DFT(GTOs)
 Exchange Functional    Exchange        .... PBE
   PBE kappa parameter   XKappa         ....  0.804000
   PBE mue parameter    XMuePBE         ....  0.219520
 Correlation Functional Correlation     .... PBE
   PBE beta parameter  CBetaPBE         ....  0.066725
 LDA part of GGA corr.  LDAOpt          .... PW91-LDA
 Gradients option       PostSCFGGA      .... off
 Hybrid DFT is turned on
   Fraction HF Exchange ScalHFX         ....  0.250000
   Scaling of DF-GGA-X  ScalDFX         ....  0.750000
   Scaling of DF-GGA-C  ScalDFC         ....  1.000000
   Scaling of DF-LDA-C  ScalLDAC        ....  1.000000
   Perturbative correction              ....  0.000000
   Density functional embedding theory  .... OFF
   NL short-range parameter             ....  6.900000
 RI-approximation to the Coulomb term is turned on
   Number of AuxJ basis functions       .... 1211
   RIJ-COSX (HFX calculated with COS-X)).... on


General Settings:
 Integral files         IntName         .... IM5-neworca/IM5-neworca
 Hartree-Fock type      HFTyp           .... RHF
 Total Charge           Charge          ....    0
 Multiplicity           Mult            ....    1
 Number of Electrons    NEL             ....  146
 Basis Dimension        Dim             ....  746
 Nuclear Repulsion      ENuc            ....   1690.3864248506 Eh

Convergence Acceleration:
 DIIS                   CNVDIIS         .... on
   Start iteration      DIISMaxIt       ....    12
   Startup error        DIISStart       ....  0.200000
   # of expansion vecs  DIISMaxEq       ....     5
   Bias factor          DIISBfac        ....   1.050
   Max. coefficient     DIISMaxC        ....  10.000
 Trust-Rad. Augm. Hess. CNVTRAH         .... auto
   Auto Start mean grad. ratio tolernc. ....  1.125000
   Auto Start start iteration           ....    20
   Auto Start num. interpolation iter.  ....    10
   Max. Number of Micro iterations      ....    16
   Max. Number of Macro iterations      .... Maxiter - #DIIS iter
   Number of Davidson start vectors     ....     2
   Converg. threshold I  (grad. norm)   ....   1.000e-05
   Converg. threshold II (energy diff.) ....   1.000e-08
   Grad. Scal. Fac. for Micro threshold ....   0.100
   Minimum threshold for Micro iter.    ....   0.010
   NR start threshold (gradient norm)   ....   0.001
   Initial trust radius                 ....   0.400
   Minimum AH scaling param. (alpha)    ....   1.000
   Maximum AH scaling param. (alpha)    .... 1000.000
   Orbital update algorithm             .... Taylor
   White noise on init. David. guess    .... on
   Maximum white noise                  ....   0.010
   Quad. conv. algorithm                .... NR
 SOSCF                  CNVSOSCF        .... on
   Start iteration      SOSCFMaxIt      ....   150
   Startup grad/error   SOSCFStart      ....  0.003300
 Level Shifting         CNVShift        .... on
   Level shift para.    LevelShift      ....    0.2500
   Turn off err/grad.   ShiftErr        ....    0.0010
 Zerner damping         CNVZerner       .... off
 Static damping         CNVDamp         .... on
   Fraction old density DampFac         ....    0.7000
   Max. Damping (<1)    DampMax         ....    0.9800
   Min. Damping (>=0)   DampMin         ....    0.0000
   Turn off err/grad.   DampErr         ....    0.1000
 Fernandez-Rico         CNVRico         .... off

SCF Procedure:
 Maximum # iterations   MaxIter         ....   125
 SCF integral mode      SCFMode         .... Direct
   Integral package                     .... SHARK and LIBINT hybrid scheme
 Reset frequency        DirectResetFreq ....    20
 Integral Threshold     Thresh          ....  2.500e-11 Eh
 Primitive CutOff       TCut            ....  2.500e-12 Eh

Convergence Tolerance:
 Convergence Check Mode ConvCheckMode   .... Total+1el-Energy
 Convergence forced     ConvForced      .... 0
 Energy Change          TolE            ....  1.000e-08 Eh
 1-El. energy change                    ....  1.000e-05 Eh
 Orbital Gradient       TolG            ....  1.000e-05
 Orbital Rotation angle TolX            ....  1.000e-05
 DIIS Error             TolErr          ....  5.000e-07


Diagonalization of the overlap matrix:
Smallest eigenvalue                        ... 6.706e-06
Time for diagonalization                   ...    0.168 sec
Threshold for overlap eigenvalues          ... 1.000e-08
Number of eigenvalues below threshold      ... 0
Time for construction of square roots      ...    0.096 sec
Total time needed                          ...    0.269 sec

Time for model grid setup =    0.295 sec

------------------------------
INITIAL GUESS: MODEL POTENTIAL
------------------------------
Loading Hartree-Fock densities                     ... done
Calculating cut-offs                               ... done
Initializing the effective Hamiltonian             ... done
Setting up the integral package (SHARK)            ... done
Starting the Coulomb interaction                   ... done (   0.4 sec)
Reading the grid                                   ... done
Mapping shells                                     ... done
Starting the XC term evaluation                    ... done (   0.2 sec)
  promolecular density results
     # of electrons  =    145.992330703
     EX              =   -115.963568074
     EC              =     -4.926209228
     EX+EC           =   -120.889777303
Transforming the Hamiltonian                       ... done (   0.1 sec)
Diagonalizing the Hamiltonian                      ... done (   0.2 sec)
Back transforming the eigenvectors                 ... done (   0.0 sec)
Now organizing SCF variables                       ... done
                      ------------------
                      INITIAL GUESS DONE (   1.4 sec)
                      ------------------
-------------------
DFT GRID GENERATION
-------------------

General Integration Accuracy     IntAcc      ... 4.388
Radial Grid Type                 RadialGrid  ... OptM3 with GC (2021)
Angular Grid (max. ang.)         AngularGrid ... 4 (Lebedev-302)
Angular grid pruning method      GridPruning ... 4 (adaptive)
Weight generation scheme         WeightScheme... Becke
Basis function cutoff            BFCut       ... 1.0000e-11
Integration weight cutoff        WCut        ... 1.0000e-14
Angular grids for H and He will be reduced by one unit
Partially contracted basis set               ... off
Rotationally invariant grid construction     ... off

Total number of grid points                  ...   185024
Total number of batches                      ...     2911
Average number of points per batch           ...       63
Average number of grid points per atom       ...     4513
Time for grid setup =    1.167 sec

--------------------
COSX GRID GENERATION
--------------------

GRIDX 1
-------
General Integration Accuracy     IntAcc      ... 3.816
Radial Grid Type                 RadialGrid  ... OptM3 with GC (2021)
Angular Grid (max. ang.)         AngularGrid ... 1 (Lebedev-50)
Angular grid pruning method      GridPruning ... 4 (adaptive)
Weight generation scheme         WeightScheme... Becke
Basis function cutoff            BFCut       ... 1.0000e-11
Integration weight cutoff        WCut        ... 1.0000e-14
Angular grids for H and He will be reduced by one unit
Partially contracted basis set               ... on
Rotationally invariant grid construction     ... off

Total number of grid points                  ...    23560
Total number of batches                      ...      390
Average number of points per batch           ...       60
Average number of grid points per atom       ...      575
UseSFitting                                  ... on

GRIDX 2
-------
General Integration Accuracy     IntAcc      ... 4.020
Radial Grid Type                 RadialGrid  ... OptM3 with GC (2021)
Angular Grid (max. ang.)         AngularGrid ... 2 (Lebedev-110)
Angular grid pruning method      GridPruning ... 4 (adaptive)
Weight generation scheme         WeightScheme... Becke
Basis function cutoff            BFCut       ... 1.0000e-11
Integration weight cutoff        WCut        ... 1.0000e-14
Angular grids for H and He will be reduced by one unit
Partially contracted basis set               ... on
Rotationally invariant grid construction     ... off

Total number of grid points                  ...    49873
Total number of batches                      ...      800
Average number of points per batch           ...       62
Average number of grid points per atom       ...     1216
UseSFitting                                  ... on

GRIDX 3
-------
General Integration Accuracy     IntAcc      ... 4.338
Radial Grid Type                 RadialGrid  ... OptM3 with GC (2021)
Angular Grid (max. ang.)         AngularGrid ... 3 (Lebedev-194)
Angular grid pruning method      GridPruning ... 4 (adaptive)
Weight generation scheme         WeightScheme... Becke
Basis function cutoff            BFCut       ... 1.0000e-11
Integration weight cutoff        WCut        ... 1.0000e-14
Angular grids for H and He will be reduced by one unit
Partially contracted basis set               ... on
Rotationally invariant grid construction     ... off

Total number of grid points                  ...   108535
Total number of batches                      ...     1720
Average number of points per batch           ...       63
Average number of grid points per atom       ...     2647
UseSFitting                                  ... on

Time for X-Grid setup             =    2.153 sec


--------------------
CPCM SOLVATION MODEL
--------------------
CPCM parameters:
  Epsilon                                         ...       2.4000
  Refrac                                          ...       1.4970
  Rsolv                                           ...       1.3000
  Surface type                                    ... GAUSSIAN VDW
  Epsilon function type                           ...         CPCM
Radii:
 Radius for C  used is    3.8550 Bohr (=   2.0400 Ang.)
 Radius for N  used is    3.5149 Bohr (=   1.8600 Ang.)
 Radius for O  used is    3.4469 Bohr (=   1.8240 Ang.)
 Radius for H  used is    2.4944 Bohr (=   1.3200 Ang.)
Calculating surface                               ...        done! (  0.0s)
GEPOL surface points                              ...         2021
GEPOL Volume                                      ...    2235.2942
GEPOL Surface-area                                ...    1093.2019
Calculating surface distance matrix               ...        done! (  0.1s)
Performing Cholesky decomposition & store         ...        done! (  0.3s)
Overall time for CPCM initialization              ...                 0.3s
--------------
SCF ITERATIONS
--------------
ITER       Energy         Delta-E        Max-DP      RMS-DP      [F,P]     Damp
               ***  Starting incremental Fock matrix formation  ***
  0   -860.6362179550   0.000000000000 0.31747463  0.00130182  0.2742921 0.7000
  1   -860.8560461184  -0.219828163392 0.30254894  0.00119113  0.1123883 0.7000
                               ***Turning on DIIS***
  2   -860.9508426755  -0.094796557121 0.42432223  0.00185359  0.0382094 0.0000
  3   -861.0936528406  -0.142810165105 0.28873165  0.00104632  0.0593580 0.0000
  4   -861.1257030188  -0.032050178241 0.06600912  0.00025964  0.0109469 0.0000
  5   -861.1270923439  -0.001389325107 0.03562941  0.00012652  0.0107667 0.0000
                      *** Initiating the SOSCF procedure ***
                           *** Shutting down DIIS ***
                      *** Re-Reading the Fockian *** 
                      *** Removing any level shift *** 
ITER      Energy       Delta-E        Grad      Rot      Max-DP    RMS-DP
  6   -861.12730846  -0.0002161190  0.000223  0.000223  0.008629  0.000037
               *** Restarting incremental Fock matrix formation ***
  7   -861.12727794   0.0000305223  0.000145  0.000515  0.006075  0.000032
  8   -861.12727703   0.0000009149  0.000256  0.000322  0.001152  0.000008
  9   -861.12728012  -0.0000030962  0.000031  0.000064  0.000440  0.000005
 10   -861.12727997   0.0000001473  0.000049  0.000042  0.000356  0.000001
 11   -861.12728021  -0.0000002327  0.000003  0.000008  0.000241  0.000001
 12   -861.12728022  -0.0000000157  0.000003  0.000005  0.000142  0.000001
                  ***Gradient check signals convergence***
              ***Rediagonalizing the Fockian in SOSCF/NRSCF***

               *****************************************************
               *                     SUCCESS                       *
               *           SCF CONVERGED AFTER  13 CYCLES          *
               *****************************************************

Old exchange energy                            =    -29.679534826 Eh
New exchange energy                            =    -29.679550482 Eh
Exchange energy change after final integration =     -0.000015656 Eh
Total energy after final integration           =   -861.127295862 Eh
Final COS-X integration done in                =    13.240 sec

----------------
TOTAL SCF ENERGY
----------------

Total Energy       :         -861.12729586 Eh          -23432.46500 eV

Components:
Nuclear Repulsion  :         1690.38642485 Eh           45997.75310 eV
Electronic Energy  :        -2551.51372071 Eh          -69430.21810 eV
One Electron Energy:        -4527.11867258 Eh         -123189.16190 eV
Two Electron Energy:         1975.60495187 Eh           53758.94379 eV
Max COSX asymmetry :            0.00000151 Eh               0.00004 eV
CPCM Dielectric    :           -0.01127751 Eh              -0.30688 eV

Virial components:
Potential Energy   :        -1718.21553024 Eh          -46755.02156 eV
Kinetic Energy     :          857.08823438 Eh           23322.55655 eV
Virial Ratio       :            2.00471254


DFT components:
N(Alpha)           :       72.999996806624 electrons
N(Beta)            :       72.999996806624 electrons
N(Total)           :      145.999993613248 electrons
E(X)               :      -88.742109084703 Eh       
E(C)               :       -4.911078886357 Eh       
E(XC)              :      -93.653187971060 Eh       
DFET-embed. en.    :        0.000000000000 Eh       
CPCM Solvation Model Properties:
Surface-charge          :           -0.03411408
Charge-correction       :           -0.00010343 Eh              -0.00281 eV
Free-energy (cav+disp)  :  This term is not implemented in the current solvation scheme

---------------
SCF CONVERGENCE
---------------

  Last Energy change         ...    1.7034e-08  Tolerance :   1.0000e-08
  Last MAX-Density change    ...    3.3307e-15  Tolerance :   1.0000e-07
  Last RMS-Density change    ...    1.4053e-17  Tolerance :   5.0000e-09
  Last Orbital Gradient      ...    6.3803e-07  Tolerance :   1.0000e-05
  Last Orbital Rotation      ...    2.2288e-06  Tolerance :   1.0000e-05

             **** THE GBW FILE WAS UPDATED (IM5-neworca/IM5-neworca.gbw) ****
             **** DENSITY IM5-neworca/IM5-neworca.scfp WAS UPDATED ****
             **** ENERGY FILE WAS UPDATED (IM5-neworca/IM5-neworca.en.tmp) ****
             **** THE GBW FILE WAS UPDATED (IM5-neworca/IM5-neworca.gbw) ****
             **** DENSITY IM5-neworca/IM5-neworca.scfp WAS UPDATED ****
----------------
ORBITAL ENERGIES
----------------

  NO   OCC          E(Eh)            E(eV) 
   0   2.0000     -19.170737      -521.6623 
   1   2.0000     -14.412212      -392.1762 
   2   2.0000     -14.400448      -391.8561 
   3   2.0000     -14.398156      -391.7937 
   4   2.0000     -10.333049      -281.1765 
   5   2.0000     -10.315280      -280.6930 
   6   2.0000     -10.247915      -278.8599 
   7   2.0000     -10.245353      -278.7902 
   8   2.0000     -10.244754      -278.7739 
   9   2.0000     -10.239460      -278.6299 
  10   2.0000     -10.237481      -278.5760 
  11   2.0000     -10.235608      -278.5251 
  12   2.0000     -10.235599      -278.5248 
  13   2.0000     -10.233975      -278.4806 
  14   2.0000     -10.225572      -278.2520 
  15   2.0000     -10.224913      -278.2340 
  16   2.0000     -10.224468      -278.2219 
  17   2.0000     -10.223503      -278.1957 
  18   2.0000     -10.221393      -278.1382 
  19   2.0000     -10.211066      -277.8572 
  20   2.0000      -1.074753       -29.2455 
  21   2.0000      -1.041619       -28.3439 
  22   2.0000      -0.960469       -26.1357 
  23   2.0000      -0.930591       -25.3227 
  24   2.0000      -0.892048       -24.2739 
  25   2.0000      -0.850298       -23.1378 
  26   2.0000      -0.791839       -21.5470 
  27   2.0000      -0.782122       -21.2826 
  28   2.0000      -0.770927       -20.9780 
  29   2.0000      -0.763316       -20.7709 
  30   2.0000      -0.731848       -19.9146 
  31   2.0000      -0.698051       -18.9949 
  32   2.0000      -0.695345       -18.9213 
  33   2.0000      -0.647134       -17.6094 
  34   2.0000      -0.629134       -17.1196 
  35   2.0000      -0.623458       -16.9652 
  36   2.0000      -0.613093       -16.6831 
  37   2.0000      -0.593033       -16.1372 
  38   2.0000      -0.562568       -15.3082 
  39   2.0000      -0.549808       -14.9610 
  40   2.0000      -0.530528       -14.4364 
  41   2.0000      -0.513964       -13.9857 
  42   2.0000      -0.499373       -13.5886 
  43   2.0000      -0.490591       -13.3497 
  44   2.0000      -0.477209       -12.9855 
  45   2.0000      -0.475958       -12.9515 
  46   2.0000      -0.463477       -12.6118 
  47   2.0000      -0.455831       -12.4038 
  48   2.0000      -0.454053       -12.3554 
  49   2.0000      -0.442999       -12.0546 
  50   2.0000      -0.438145       -11.9225 
  51   2.0000      -0.432689       -11.7741 
  52   2.0000      -0.429137       -11.6774 
  53   2.0000      -0.428206       -11.6521 
  54   2.0000      -0.416786       -11.3413 
  55   2.0000      -0.411690       -11.2027 
  56   2.0000      -0.409652       -11.1472 
  57   2.0000      -0.402960       -10.9651 
  58   2.0000      -0.396000       -10.7757 
  59   2.0000      -0.390166       -10.6170 
  60   2.0000      -0.381910       -10.3923 
  61   2.0000      -0.378511       -10.2998 
  62   2.0000      -0.372815       -10.1448 
  63   2.0000      -0.360799        -9.8179 
  64   2.0000      -0.351256        -9.5582 
  65   2.0000      -0.340511        -9.2658 
  66   2.0000      -0.336241        -9.1496 
  67   2.0000      -0.288400        -7.8478 
  68   2.0000      -0.272205        -7.4071 
  69   2.0000      -0.268365        -7.3026 
  70   2.0000      -0.263385        -7.1671 
  71   2.0000      -0.258904        -7.0451 
  72   2.0000      -0.178928        -4.8689 
  73   0.0000      -0.010264        -0.2793 
  74   0.0000      -0.006829        -0.1858 
  75   0.0000       0.019135         0.5207 
  76   0.0000       0.040511         1.1024 
  77   0.0000       0.045286         1.2323 
  78   0.0000       0.058275         1.5857 
  79   0.0000       0.067026         1.8239 
  80   0.0000       0.071559         1.9472 
  81   0.0000       0.083584         2.2744 
  82   0.0000       0.088223         2.4007 
  83   0.0000       0.093016         2.5311 
  84   0.0000       0.100770         2.7421 
  85   0.0000       0.102369         2.7856 
  86   0.0000       0.110870         3.0169 
  87   0.0000       0.113419         3.0863 
  88   0.0000       0.117704         3.2029 
  89   0.0000       0.121681         3.3111 
  90   0.0000       0.126247         3.4354 
  91   0.0000       0.128178         3.4879 
  92   0.0000       0.128690         3.5018 
  93   0.0000       0.132639         3.6093 
  94   0.0000       0.135247         3.6803 
  95   0.0000       0.138891         3.7794 
  96   0.0000       0.150551         4.0967 
  97   0.0000       0.152514         4.1501 
  98   0.0000       0.154144         4.1945 
  99   0.0000       0.159884         4.3507 
 100   0.0000       0.162933         4.4336 
 101   0.0000       0.172965         4.7066 
 102   0.0000       0.178220         4.8496 
 103   0.0000       0.189072         5.1449 
 104   0.0000       0.191758         5.2180 
 105   0.0000       0.196095         5.3360 
 106   0.0000       0.197899         5.3851 
 107   0.0000       0.204093         5.5537 
 108   0.0000       0.205257         5.5853 
 109   0.0000       0.213596         5.8122 
 110   0.0000       0.223127         6.0716 
 111   0.0000       0.224446         6.1075 
 112   0.0000       0.234158         6.3718 
 113   0.0000       0.242900         6.6097 
 114   0.0000       0.244947         6.6653 
 115   0.0000       0.248734         6.7684 
 116   0.0000       0.252055         6.8588 
 117   0.0000       0.255049         6.9402 
 118   0.0000       0.258877         7.0444 
 119   0.0000       0.266061         7.2399 
 120   0.0000       0.270309         7.3555 
 121   0.0000       0.277005         7.5377 
 122   0.0000       0.281019         7.6469 
 123   0.0000       0.284759         7.7487 
 124   0.0000       0.290909         7.9160 
 125   0.0000       0.293813         7.9950 
 126   0.0000       0.299337         8.1454 
 127   0.0000       0.307056         8.3554 
 128   0.0000       0.313821         8.5395 
 129   0.0000       0.320658         8.7255 
 130   0.0000       0.322306         8.7704 
 131   0.0000       0.326414         8.8822 
 132   0.0000       0.330687         8.9985 
 133   0.0000       0.340048         9.2532 
 134   0.0000       0.342515         9.3203 
 135   0.0000       0.347587         9.4583 
 136   0.0000       0.351956         9.5772 
 137   0.0000       0.359542         9.7836 
 138   0.0000       0.362793         9.8721 
 139   0.0000       0.371674        10.1138 
 140   0.0000       0.377290        10.2666 
 141   0.0000       0.378551        10.3009 
 142   0.0000       0.382925        10.4199 
 143   0.0000       0.388729        10.5778 
 144   0.0000       0.392684        10.6855 
 145   0.0000       0.397311        10.8114 
 146   0.0000       0.401477        10.9247 
 147   0.0000       0.405781        11.0419 
 148   0.0000       0.409521        11.1436 
 149   0.0000       0.413933        11.2637 
 150   0.0000       0.418743        11.3946 
 151   0.0000       0.422685        11.5018 
 152   0.0000       0.427107        11.6222 
 153   0.0000       0.431554        11.7432 
 154   0.0000       0.434538        11.8244 
 155   0.0000       0.437641        11.9088 
 156   0.0000       0.439285        11.9535 
 157   0.0000       0.443518        12.0687 
 158   0.0000       0.446612        12.1529 
 159   0.0000       0.450187        12.2502 
 160   0.0000       0.452438        12.3115 
 161   0.0000       0.458966        12.4891 
 162   0.0000       0.462772        12.5927 
 163   0.0000       0.468367        12.7449 
 164   0.0000       0.473208        12.8766 
 165   0.0000       0.481282        13.0964 
 166   0.0000       0.483601        13.1594 
 167   0.0000       0.486887        13.2489 
 168   0.0000       0.495509        13.4835 
 169   0.0000       0.496473        13.5097 
 170   0.0000       0.500185        13.6107 
 171   0.0000       0.507081        13.7984 
 172   0.0000       0.511601        13.9214 
 173   0.0000       0.515187        14.0190 
 174   0.0000       0.516758        14.0617 
 175   0.0000       0.521015        14.1775 
 176   0.0000       0.521862        14.2006 
 177   0.0000       0.526008        14.3134 
 178   0.0000       0.540808        14.7161 
 179   0.0000       0.543924        14.8009 
 180   0.0000       0.547164        14.8891 
 181   0.0000       0.556308        15.1379 
 182   0.0000       0.561793        15.2872 
 183   0.0000       0.566813        15.4238 
 184   0.0000       0.570931        15.5358 
 185   0.0000       0.577647        15.7186 
 186   0.0000       0.585039        15.9197 
 187   0.0000       0.588176        16.0051 
 188   0.0000       0.598849        16.2955 
 189   0.0000       0.605625        16.4799 
 190   0.0000       0.610941        16.6246 
 191   0.0000       0.619521        16.8580 
 192   0.0000       0.627607        17.0780 
 193   0.0000       0.636706        17.3257 
 194   0.0000       0.642321        17.4784 
 195   0.0000       0.648965        17.6592 
 196   0.0000       0.652743        17.7620 
 197   0.0000       0.662497        18.0275 
 198   0.0000       0.667479        18.1630 
 199   0.0000       0.677406        18.4332 
 200   0.0000       0.682091        18.5607 
 201   0.0000       0.688430        18.7331 
 202   0.0000       0.693694        18.8764 
 203   0.0000       0.700630        19.0651 
 204   0.0000       0.711910        19.3721 
 205   0.0000       0.721066        19.6212 
 206   0.0000       0.726506        19.7692 
 207   0.0000       0.733158        19.9503 
 208   0.0000       0.740187        20.1415 
 209   0.0000       0.741886        20.1878 
 210   0.0000       0.752197        20.4683 
 211   0.0000       0.757443        20.6111 
 212   0.0000       0.763434        20.7741 
 213   0.0000       0.775242        21.0954 
 214   0.0000       0.777875        21.1671 
 215   0.0000       0.787286        21.4231 
 216   0.0000       0.794449        21.6180 
 217   0.0000       0.809280        22.0216 
 218   0.0000       0.821556        22.3557 
 219   0.0000       0.826612        22.4933 
 220   0.0000       0.833159        22.6714 
 221   0.0000       0.838981        22.8298 
 222   0.0000       0.842325        22.9208 
 223   0.0000       0.847825        23.0705 
 224   0.0000       0.856029        23.2937 
 225   0.0000       0.868769        23.6404 
 226   0.0000       0.882283        24.0081 
 227   0.0000       0.883476        24.0406 
 228   0.0000       0.895084        24.3565 
 229   0.0000       0.896724        24.4011 
 230   0.0000       0.904722        24.6187 
 231   0.0000       0.917068        24.9547 
 232   0.0000       0.925743        25.1908 
 233   0.0000       0.928218        25.2581 
 234   0.0000       0.932753        25.3815 
 235   0.0000       0.935945        25.4684 
 236   0.0000       0.951274        25.8855 
 237   0.0000       0.958992        26.0955 
 238   0.0000       0.966630        26.3033 
 239   0.0000       0.976033        26.5592 
 240   0.0000       0.989986        26.9389 
 241   0.0000       0.997948        27.1556 
 242   0.0000       0.997997        27.1569 
 243   0.0000       1.011837        27.5335 
 244   0.0000       1.015399        27.6304 
 245   0.0000       1.027386        27.9566 
 246   0.0000       1.033902        28.1339 
 247   0.0000       1.037019        28.2187 
 248   0.0000       1.048054        28.5190 
 249   0.0000       1.058640        28.8071 
 250   0.0000       1.067075        29.0366 
 251   0.0000       1.070897        29.1406 
 252   0.0000       1.073935        29.2232 
 253   0.0000       1.084629        29.5143 
 254   0.0000       1.094116        29.7724 
 255   0.0000       1.096697        29.8426 
 256   0.0000       1.111428        30.2435 
 257   0.0000       1.115845        30.3637 
 258   0.0000       1.128808        30.7164 
 259   0.0000       1.135787        30.9063 
 260   0.0000       1.139556        31.0089 
 261   0.0000       1.146436        31.1961 
 262   0.0000       1.150905        31.3177 
 263   0.0000       1.158006        31.5109 
 264   0.0000       1.162127        31.6231 
 265   0.0000       1.176091        32.0031 
 266   0.0000       1.192731        32.4559 
 267   0.0000       1.204717        32.7820 
 268   0.0000       1.213415        33.0187 
 269   0.0000       1.221004        33.2252 
 270   0.0000       1.222988        33.2792 
 271   0.0000       1.227616        33.4051 
 272   0.0000       1.241986        33.7961 
 273   0.0000       1.249768        34.0079 
 274   0.0000       1.251772        34.0625 
 275   0.0000       1.265694        34.4413 
 276   0.0000       1.273844        34.6631 
 277   0.0000       1.278393        34.7868 
 278   0.0000       1.287642        35.0385 
 279   0.0000       1.289455        35.0878 
 280   0.0000       1.295285        35.2465 
 281   0.0000       1.301243        35.4086 
 282   0.0000       1.316139        35.8140 
 283   0.0000       1.325190        36.0603 
 284   0.0000       1.330050        36.1925 
 285   0.0000       1.335947        36.3530 
 286   0.0000       1.365494        37.1570 
 287   0.0000       1.368455        37.2376 
 288   0.0000       1.372146        37.3380 
 289   0.0000       1.375599        37.4319 
 290   0.0000       1.388411        37.7806 
 291   0.0000       1.401413        38.1344 
 292   0.0000       1.423464        38.7344 
 293   0.0000       1.432673        38.9850 
 294   0.0000       1.447515        39.3889 
 295   0.0000       1.455301        39.6007 
 296   0.0000       1.465513        39.8786 
 297   0.0000       1.473100        40.0851 
 298   0.0000       1.475241        40.1434 
 299   0.0000       1.482957        40.3533 
 300   0.0000       1.493783        40.6479 
 301   0.0000       1.502382        40.8819 
 302   0.0000       1.508657        41.0526 
 303   0.0000       1.515548        41.2401 
 304   0.0000       1.518552        41.3219 
 305   0.0000       1.523514        41.4569 
 306   0.0000       1.532795        41.7095 
 307   0.0000       1.535276        41.7770 
 308   0.0000       1.538464        41.8637 
 309   0.0000       1.551261        42.2120 
 310   0.0000       1.556295        42.3489 
 311   0.0000       1.563247        42.5381 
 312   0.0000       1.575674        42.8763 
 313   0.0000       1.582242        43.0550 
 314   0.0000       1.589690        43.2577 
 315   0.0000       1.592539        43.3352 
 316   0.0000       1.601897        43.5898 
[...]
 10:     83.13   0.001118    5.65  0.004199  ( 0.035690 -0.021435  0.049655)
 11:    109.68   0.000044    0.22  0.000124  (-0.002053 -0.009134 -0.006040)
 12:    115.10   0.000068    0.35  0.000186  (-0.012761  0.003954 -0.002681)
 13:    144.74   0.000428    2.16  0.000923  (-0.028927 -0.003346 -0.008665)
 14:    162.50   0.001202    6.07  0.002307  (-0.015806  0.044679  0.007838)
 15:    169.40   0.000288    1.46  0.000531  (-0.001544 -0.007295 -0.021794)
 16:    184.99   0.000038    0.19  0.000065  (-0.005971 -0.001088  0.005268)
 17:    199.42   0.000143    0.72  0.000224  (-0.009833 -0.011131 -0.001795)
 18:    209.74   0.000154    0.78  0.000229  (-0.012216 -0.008942 -0.000137)
 19:    233.41   0.000100    0.51  0.000134  ( 0.003254  0.005981 -0.009362)
 20:    248.13   0.000998    5.04  0.001255  (-0.024624 -0.000729 -0.025463)
 21:    262.32   0.000928    4.69  0.001104  ( 0.021006 -0.003605  0.025482)
 22:    279.63   0.001013    5.12  0.001130  ( 0.008861 -0.029497 -0.013471)
 23:    295.51   0.001931    9.76  0.002039  ( 0.006467 -0.039775 -0.020365)
 24:    319.09   0.000791    4.00  0.000773  ( 0.015539  0.012298 -0.019504)
 25:    344.15   0.001236    6.25  0.001121  (-0.003494 -0.033118  0.003481)
 26:    374.11   0.001437    7.26  0.001199  (-0.009369 -0.026322  0.020444)
 27:    405.59   0.004490   22.69  0.003455  (-0.045341 -0.036599  0.007725)
 28:    413.87   0.000434    2.19  0.000327  (-0.011020 -0.014337  0.000355)
 29:    450.88   0.001120    5.66  0.000775  (-0.012028 -0.022060  0.011993)
 30:    486.28   0.002732   13.81  0.001753  ( 0.009170  0.001688 -0.040819)
 31:    526.42   0.000546    2.76  0.000324  (-0.009136 -0.015499  0.000058)
 32:    562.69   0.003060   15.47  0.001697  ( 0.025316 -0.031111 -0.009404)
 33:    579.20   0.002632   13.30  0.001418  (-0.024781 -0.000439 -0.028354)
 34:    600.95   0.001938    9.80  0.001007  ( 0.004922 -0.028458 -0.013134)
 35:    629.01   0.003492   17.65  0.001732  (-0.009911  0.027845  0.029306)
 36:    631.68   0.000146    0.74  0.000072  (-0.003397 -0.006141 -0.004778)
 37:    650.05   0.014448   73.01  0.006936  (-0.004319 -0.081624 -0.015958)
 38:    665.85   0.003847   19.44  0.001803  (-0.011166 -0.037262 -0.017020)
 39:    706.20   0.002700   13.65  0.001193  (-0.008500  0.030267 -0.014315)
 40:    717.11   0.013292   67.17  0.005784  (-0.007341 -0.047261  0.059133)
 41:    766.94   0.002674   13.52  0.001088  (-0.008669 -0.004985 -0.031436)
 42:    773.76   0.003170   16.02  0.001279  (-0.006974  0.023559 -0.025978)
 43:    799.94   0.003553   17.95  0.001386  (-0.032113  0.009192 -0.016440)
 44:    804.68   0.002302   11.64  0.000893  (-0.019028 -0.008767  0.021306)
 45:    839.44   0.005650   28.55  0.002100  ( 0.011692 -0.031361 -0.031308)
 46:    862.69   0.000007    0.04  0.000003  ( 0.000570 -0.000653  0.001373)
 47:    898.69   0.000483    2.44  0.000168  ( 0.009256 -0.009065 -0.000132)
 48:    933.56   0.000538    2.72  0.000180  (-0.004037 -0.011502 -0.005584)
 49:    968.78   0.008418   42.54  0.002712  ( 0.021012 -0.032583 -0.034764)
 50:    983.93   0.000681    3.44  0.000216  (-0.008573  0.010528  0.005620)
 51:    992.08   0.005203   26.29  0.001637  (-0.022626  0.017565 -0.028569)
 52:    999.24   0.007450   37.65  0.002327  ( 0.023601 -0.037529 -0.019005)
 53:   1003.01   0.013428   67.86  0.004178  ( 0.022872 -0.043594 -0.041885)
 54:   1022.90   0.000175    0.89  0.000053  (-0.003829 -0.005426 -0.003058)
 55:   1025.58   0.019950  100.82  0.006070  ( 0.062581 -0.005116 -0.046128)
 56:   1043.22   0.003708   18.74  0.001109  ( 0.019067 -0.001753  0.027249)
 57:   1055.12   0.001793    9.06  0.000530  (-0.020604 -0.008328 -0.006023)
 58:   1064.31   0.002766   13.98  0.000811  (-0.007516  0.021341  0.017294)
 59:   1097.70   0.005188   26.22  0.001475  ( 0.036869 -0.002090 -0.010550)
 60:   1103.68   0.005229   26.43  0.001479  (-0.022559 -0.006347  0.030486)
 61:   1108.04   0.001589    8.03  0.000448  ( 0.017418  0.011134 -0.004503)
 62:   1143.17   0.000531    2.69  0.000145  ( 0.000678 -0.011057 -0.004726)
 63:   1143.90   0.002329   11.77  0.000635  (-0.022458  0.005221 -0.010180)
 64:   1150.64   0.001809    9.14  0.000491  (-0.007982 -0.005952  0.019787)
 65:   1155.18   0.001028    5.19  0.000278  ( 0.016010  0.003287 -0.003247)
 66:   1163.11   0.006000   30.32  0.001610  ( 0.020648 -0.023926 -0.024719)
 67:   1173.63   0.000019    0.10  0.000005  ( 0.000158  0.002201 -0.000390)
 68:   1195.92   0.001693    8.56  0.000442  ( 0.009494 -0.002686 -0.018561)
 69:   1204.77   0.001245    6.29  0.000322  (-0.011585 -0.000573  0.013706)
 70:   1236.30   0.002879   14.55  0.000727  (-0.019391 -0.006578 -0.017533)
 71:   1245.34   0.011849   59.88  0.002969  ( 0.028627 -0.046192  0.003990)
 72:   1250.73   0.011520   58.22  0.002874  (-0.026795 -0.004075 -0.046257)
 73:   1267.60   0.001420    7.18  0.000350  (-0.005160 -0.017169  0.005310)
 74:   1271.64   0.000992    5.01  0.000243  ( 0.011981  0.009105 -0.004117)
 75:   1293.64   0.006351   32.10  0.001532  ( 0.030191  0.016681 -0.018501)
 76:   1299.32   0.002214   11.19  0.000532  ( 0.012244  0.011070 -0.016105)
 77:   1335.37   0.000785    3.97  0.000184  (-0.000215  0.006847 -0.011688)
 78:   1345.21   0.000035    0.18  0.000008  (-0.001535 -0.000291  0.002379)
 79:   1370.69   0.000124    0.63  0.000028  (-0.004456 -0.000902 -0.002754)
 80:   1390.30   0.000913    4.62  0.000205  (-0.006163 -0.007901  0.010229)
 81:   1393.11   0.016204   81.89  0.003630  (-0.026130  0.009075  0.053523)
 82:   1396.53   0.000216    1.09  0.000048  (-0.004991 -0.004826 -0.000285)
 83:   1416.86   0.025893  130.85  0.005703  (-0.054267  0.018634 -0.049099)
 84:   1428.81   0.015485   78.26  0.003382  (-0.048891  0.010659  0.029634)
 85:   1448.02   0.045026  227.54  0.009704  (-0.071691 -0.061926  0.027003)
 86:   1452.96   0.004099   20.72  0.000880  (-0.024297 -0.002101  0.016903)
 87:   1459.06   0.010083   50.96  0.002157  (-0.036988  0.011396 -0.025663)
 88:   1470.67   0.002968   15.00  0.000630  ( 0.017327 -0.007756  0.016416)
 89:   1475.12   0.000895    4.52  0.000189  ( 0.006606 -0.010088 -0.006621)
 90:   1477.65   0.000418    2.11  0.000088  ( 0.002388  0.004387 -0.007952)
 91:   1479.01   0.001813    9.16  0.000383  ( 0.018646 -0.005056  0.003052)
 92:   1481.38   0.003709   18.74  0.000781  ( 0.021220  0.018109  0.001776)
 93:   1488.16   0.001809    9.14  0.000379  ( 0.019348 -0.000458  0.002183)
 94:   1498.87   0.012142   61.36  0.002528  (-0.036843 -0.006562  0.033576)
 95:   1500.97   0.009767   49.36  0.002031  (-0.035207  0.000912  0.028111)
 96:   1516.56   0.011226   56.73  0.002310  ( 0.037610  0.024358 -0.017383)
 97:   1540.06   0.004967   25.10  0.001006  ( 0.005299  0.023757  0.020348)
 98:   1647.93   0.000217    1.09  0.000041  (-0.005149  0.002570 -0.002813)
 99:   1671.72   0.002596   13.12  0.000485  ( 0.010604  0.018404  0.005789)
100:   1679.45   0.019256   97.31  0.003578  (-0.046524 -0.007738  0.036791)
101:   1769.99   0.126462  639.09  0.022296  (-0.078995  0.086990  0.092134)
102:   2999.11   0.020795  105.09  0.002164  ( 0.030383 -0.033207  0.011743)
103:   3006.15   0.021341  107.85  0.002215  (-0.019153 -0.021466 -0.037253)
104:   3045.87   0.000392    1.98  0.000040  ( 0.003147 -0.004568 -0.003063)
105:   3051.13   0.010738   54.26  0.001098  (-0.013525 -0.021349  0.021436)
106:   3051.95   0.002805   14.17  0.000287  (-0.010448 -0.012972  0.003055)
107:   3061.56   0.003531   17.84  0.000360  ( 0.006991 -0.008337  0.015541)
108:   3092.23   0.006458   32.63  0.000652  (-0.003266  0.024054 -0.007901)
109:   3094.46   0.005974   30.19  0.000602  ( 0.015848  0.015355  0.010746)
110:   3121.37   0.003736   18.88  0.000374  (-0.015395 -0.000791 -0.011658)
111:   3123.97   0.005271   26.64  0.000527  (-0.019187 -0.007453 -0.010141)
112:   3134.95   0.003673   18.56  0.000366  ( 0.017162  0.000128 -0.008432)
113:   3141.10   0.002750   13.90  0.000273  ( 0.007476  0.004358 -0.014084)
114:   3142.14   0.003633   18.36  0.000361  ( 0.010291 -0.014287 -0.007124)
115:   3160.13   0.000896    4.53  0.000089  (-0.005528  0.006275  0.004309)
116:   3184.20   0.000235    1.19  0.000023  ( 0.000098  0.003887  0.002809)
117:   3191.51   0.000715    3.61  0.000070  (-0.008319 -0.000697 -0.000477)
118:   3201.25   0.002698   13.64  0.000263  ( 0.002791  0.011925  0.010633)
119:   3207.04   0.004475   22.62  0.000435  ( 0.017825 -0.010553 -0.002526)
120:   3213.45   0.001883    9.52  0.000183  ( 0.005904  0.010153  0.006705)
121:   3269.30   0.001018    5.14  0.000097  ( 0.007312 -0.002163  0.006246)
122:   3291.68   0.000092    0.46  0.000009  (-0.001421 -0.000266  0.002575)

* The epsilon (eps) is given for a Dirac delta lineshape.
** The dipole moment derivative (T) already includes vibrational overlap.

The first frequency considered to be a vibration is 6
The total number of vibrations considered is 117


--------------------------
THERMOCHEMISTRY AT 433.15K
--------------------------

Temperature         ... 433.15 K
Pressure            ... 1.00 atm
Total Mass          ... 271.36 AMU

Throughout the following assumptions are being made:
  (1) The electronic state is orbitally nondegenerate
  (2) There are no thermally accessible electronically excited states
  (3) Hindered rotations indicated by low frequency modes are not
      treated as such but are treated as vibrations and this may
      cause some error
  (4) All equations used are the standard statistical mechanics
      equations for an ideal gas
  (5) All vibrations are strictly harmonic

freq.      18.14  E(vib)   ...       0.84 
freq.      49.71  E(vib)   ...       0.79 
freq.      67.00  E(vib)   ...       0.77 
freq.      76.99  E(vib)   ...       0.76 
freq.      83.13  E(vib)   ...       0.75 
freq.     109.68  E(vib)   ...       0.71 
freq.     115.10  E(vib)   ...       0.71 
freq.     144.74  E(vib)   ...       0.67 
freq.     162.50  E(vib)   ...       0.65 
freq.     169.40  E(vib)   ...       0.64 
freq.     184.99  E(vib)   ...       0.62 
freq.     199.42  E(vib)   ...       0.61 
freq.     209.74  E(vib)   ...       0.60 
freq.     233.41  E(vib)   ...       0.57 
freq.     248.13  E(vib)   ...       0.55 
freq.     262.32  E(vib)   ...       0.54 
freq.     279.63  E(vib)   ...       0.52 
freq.     295.51  E(vib)   ...       0.51 
freq.     319.09  E(vib)   ...       0.48 
freq.     344.15  E(vib)   ...       0.46 
freq.     374.11  E(vib)   ...       0.43 
freq.     405.59  E(vib)   ...       0.41 
freq.     413.87  E(vib)   ...       0.40 
freq.     450.88  E(vib)   ...       0.37 
freq.     486.28  E(vib)   ...       0.35 
freq.     526.42  E(vib)   ...       0.32 
freq.     562.69  E(vib)   ...       0.29 
freq.     579.20  E(vib)   ...       0.28 
freq.     600.95  E(vib)   ...       0.27 
freq.     629.01  E(vib)   ...       0.25 
freq.     631.68  E(vib)   ...       0.25 
freq.     650.05  E(vib)   ...       0.24 
freq.     665.85  E(vib)   ...       0.23 
freq.     706.20  E(vib)   ...       0.21 
freq.     717.11  E(vib)   ...       0.21 
freq.     766.94  E(vib)   ...       0.19 
freq.     773.76  E(vib)   ...       0.18 
freq.     799.94  E(vib)   ...       0.17 
freq.     804.68  E(vib)   ...       0.17 
freq.     839.44  E(vib)   ...       0.16 
freq.     862.69  E(vib)   ...       0.15 
freq.     898.69  E(vib)   ...       0.14 
freq.     933.56  E(vib)   ...       0.13 
freq.     968.78  E(vib)   ...       0.12 
freq.     983.93  E(vib)   ...       0.11 
freq.     992.08  E(vib)   ...       0.11 
freq.     999.24  E(vib)   ...       0.11 
freq.    1003.01  E(vib)   ...       0.11 
freq.    1022.90  E(vib)   ...       0.10 
freq.    1025.58  E(vib)   ...       0.10 
freq.    1043.22  E(vib)   ...       0.10 
freq.    1055.12  E(vib)   ...       0.09 
freq.    1064.31  E(vib)   ...       0.09 
freq.    1097.70  E(vib)   ...       0.08 
freq.    1103.68  E(vib)   ...       0.08 
freq.    1108.04  E(vib)   ...       0.08 
freq.    1143.17  E(vib)   ...       0.08 
freq.    1143.90  E(vib)   ...       0.07 
freq.    1150.64  E(vib)   ...       0.07 
freq.    1155.18  E(vib)   ...       0.07 
freq.    1163.11  E(vib)   ...       0.07 
freq.    1173.63  E(vib)   ...       0.07 
freq.    1195.92  E(vib)   ...       0.07 
freq.    1204.77  E(vib)   ...       0.06 
freq.    1236.30  E(vib)   ...       0.06 
freq.    1245.34  E(vib)   ...       0.06 
freq.    1250.73  E(vib)   ...       0.06 
freq.    1267.60  E(vib)   ...       0.05 
freq.    1271.64  E(vib)   ...       0.05 
freq.    1293.64  E(vib)   ...       0.05 
freq.    1299.32  E(vib)   ...       0.05 
freq.    1335.37  E(vib)   ...       0.05 
freq.    1345.21  E(vib)   ...       0.04 
freq.    1370.69  E(vib)   ...       0.04 
freq.    1390.30  E(vib)   ...       0.04 
freq.    1393.11  E(vib)   ...       0.04 
freq.    1396.53  E(vib)   ...       0.04 
freq.    1416.86  E(vib)   ...       0.04 
freq.    1428.81  E(vib)   ...       0.04 
freq.    1448.02  E(vib)   ...       0.03 
freq.    1452.96  E(vib)   ...       0.03 
freq.    1459.06  E(vib)   ...       0.03 
freq.    1470.67  E(vib)   ...       0.03 
freq.    1475.12  E(vib)   ...       0.03 
freq.    1477.65  E(vib)   ...       0.03 
freq.    1479.01  E(vib)   ...       0.03 
freq.    1481.38  E(vib)   ...       0.03 
freq.    1488.16  E(vib)   ...       0.03 
freq.    1498.87  E(vib)   ...       0.03 
freq.    1500.97  E(vib)   ...       0.03 
freq.    1516.56  E(vib)   ...       0.03 
freq.    1540.06  E(vib)   ...       0.03 
freq.    1647.93  E(vib)   ...       0.02 
freq.    1671.72  E(vib)   ...       0.02 
freq.    1679.45  E(vib)   ...       0.02 
freq.    1769.99  E(vib)   ...       0.01 
freq.    2999.11  E(vib)   ...       0.00 
freq.    3006.15  E(vib)   ...       0.00 
freq.    3045.87  E(vib)   ...       0.00 
freq.    3051.13  E(vib)   ...       0.00 
freq.    3051.95  E(vib)   ...       0.00 
freq.    3061.56  E(vib)   ...       0.00 
freq.    3092.23  E(vib)   ...       0.00 
freq.    3094.46  E(vib)   ...       0.00 
freq.    3121.37  E(vib)   ...       0.00 
freq.    3123.97  E(vib)   ...       0.00 
freq.    3134.95  E(vib)   ...       0.00 
freq.    3141.10  E(vib)   ...       0.00 
freq.    3142.14  E(vib)   ...       0.00 
freq.    3160.13  E(vib)   ...       0.00 
freq.    3184.20  E(vib)   ...       0.00 
freq.    3191.51  E(vib)   ...       0.00 
freq.    3201.25  E(vib)   ...       0.00 
freq.    3207.04  E(vib)   ...       0.00 
freq.    3213.45  E(vib)   ...       0.00 
freq.    3269.30  E(vib)   ...       0.00 
freq.    3291.68  E(vib)   ...       0.00 

------------
INNER ENERGY
------------

The inner energy is: U= E(el) + E(ZPE) + E(vib) + E(rot) + E(trans)
    E(el)   - is the total energy from the electronic structure calculation
              = E(kin-el) + E(nuc-el) + E(el-el) + E(nuc-nuc)
    E(ZPE)  - the the zero temperature vibrational energy from the frequency calculation
    E(vib)  - the the finite temperature correction to E(ZPE) due to population
              of excited vibrational states
    E(rot)  - is the rotational thermal energy
    E(trans)- is the translational thermal energy

Summary of contributions to the inner energy U:
Electronic energy                ...   -861.18007821 Eh
Zero point energy                ...      0.34909239 Eh     219.06 kcal/mol
Thermal vibrational correction   ...      0.03439873 Eh      21.59 kcal/mol
Thermal rotational correction    ...      0.00205755 Eh       1.29 kcal/mol
Thermal translational correction ...      0.00205755 Eh       1.29 kcal/mol
-----------------------------------------------------------------------
Total thermal energy                   -860.79247200 Eh


Summary of corrections to the electronic energy:
(perhaps to be used in another calculation)
Total thermal correction                  0.03851382 Eh      24.17 kcal/mol
Non-thermal (ZPE) correction              0.34909239 Eh     219.06 kcal/mol
-----------------------------------------------------------------------
Total correction                          0.38760621 Eh     243.23 kcal/mol


--------
ENTHALPY
--------

The enthalpy is H = U + kB*T
                kB is Boltzmann's constant
Total free energy                 ...   -860.79247200 Eh 
Thermal Enthalpy correction       ...      0.00137174 Eh       0.86 kcal/mol
-----------------------------------------------------------------------
Total Enthalpy                    ...   -860.79110026 Eh


Note: Only C1 symmetry has been detected, increase convergence thresholds 
      if your molecule has a higher symmetry. Symmetry factor of 1.0 is   
      used for the rotational entropy correction. 
 

Note: Rotational entropy computed according to Herzberg 
Infrared and Raman Spectra, Chapter V,1, Van Nostrand Reinhold, 1945 
Point Group:  C1, Symmetry Number:   1  
Rotational constants in cm-1:     0.017341     0.010917     0.008695 

Vibrational entropy computed according to the QRRHO of S. Grimme
Chem.Eur.J. 2012 18 9955


-------
ENTROPY
-------

The entropy contributions are T*S = T*(S(el)+S(vib)+S(rot)+S(trans))
     S(el)   - electronic entropy
     S(vib)  - vibrational entropy
     S(rot)  - rotational entropy
     S(trans)- translational entropy
The entropies will be listed as multiplied by the temperature to get
units of energy

Electronic entropy                ...      0.00000000 Eh      0.00 kcal/mol
Vibrational entropy               ...      0.06206249 Eh     38.94 kcal/mol
Rotational entropy                ...      0.02371926 Eh     14.88 kcal/mol
Translational entropy             ...      0.03075081 Eh     19.30 kcal/mol
-----------------------------------------------------------------------
Final entropy term                ...      0.11653256 Eh     73.13 kcal/mol

In case the symmetry of your molecule has not been determined correctly
or in case you have a reason to use a different symmetry number we print 
out the resulting rotational entropy values for sn=1,12 :
 --------------------------------------------------------
|  sn= 1 | S(rot)=       0.02371926 Eh     14.88 kcal/mol|
|  sn= 2 | S(rot)=       0.02276847 Eh     14.29 kcal/mol|
|  sn= 3 | S(rot)=       0.02221230 Eh     13.94 kcal/mol|
|  sn= 4 | S(rot)=       0.02181769 Eh     13.69 kcal/mol|
|  sn= 5 | S(rot)=       0.02151160 Eh     13.50 kcal/mol|
|  sn= 6 | S(rot)=       0.02126151 Eh     13.34 kcal/mol|
|  sn= 7 | S(rot)=       0.02105006 Eh     13.21 kcal/mol|
|  sn= 8 | S(rot)=       0.02086690 Eh     13.09 kcal/mol|
|  sn= 9 | S(rot)=       0.02070533 Eh     12.99 kcal/mol|
|  sn=10 | S(rot)=       0.02056081 Eh     12.90 kcal/mol|
|  sn=11 | S(rot)=       0.02043007 Eh     12.82 kcal/mol|
|  sn=12 | S(rot)=       0.02031072 Eh     12.75 kcal/mol|
 --------------------------------------------------------


-------------------
GIBBS FREE ENERGY
-------------------

The Gibbs free energy is G = H - T*S

Total enthalpy                    ...   -860.79110026 Eh 
Total entropy correction          ...     -0.11653256 Eh    -73.13 kcal/mol
-----------------------------------------------------------------------
Final Gibbs free energy         ...   -860.90763282 Eh

For completeness - the Gibbs free energy minus the electronic energy
G-E(el)                           ...      0.27244539 Eh    170.96 kcal/mol


Timings for individual modules:

Sum of individual times         ...     2308.657 sec (=  38.478 min)
GTO integral calculation        ...        5.537 sec (=   0.092 min)   0.2 %
SCF iterations                  ...      196.191 sec (=   3.270 min)   8.5 %
SCF Gradient evaluation         ...       29.684 sec (=   0.495 min)   1.3 %
Geometry relaxation             ...        0.270 sec (=   0.005 min)   0.0 %
Analytical frequency calculation...     2076.975 sec (=  34.616 min)  90.0 %
                             ****ORCA TERMINATED NORMALLY****
TOTAL RUN TIME: 0 days 0 hours 38 minutes 33 seconds 270 msec
