
                                 *****************
                                 * O   R   C   A *
                                 *****************

                                            #,                                       
                                            ###                                      
                                            ####                                     
                                            #####                                    
                                            ######                                   
                                           ########,                                 
                                     ,,################,,,,,                         
                               ,,#################################,,                 
                          ,,##########################################,,             
                       ,#########################################, ''#####,          
                    ,#############################################,,   '####,        
                  ,##################################################,,,,####,       
                ,###########''''           ''''###############################       
              ,#####''   ,,,,##########,,,,          '''####'''          '####       
            ,##' ,,,,###########################,,,                        '##       
           ' ,,###''''                  '''############,,,                           
         ,,##''                                '''############,,,,        ,,,,,,###''
      ,#''                                            '''#######################'''  
     '                                                          ''''####''''         
             ,#######,   #######,   ,#######,      ##                                
            ,#'     '#,  ##    ##  ,#'     '#,    #''#        ######   ,####,        
            ##       ##  ##   ,#'  ##            #'  '#       #        #'  '#        
            ##       ##  #######   ##           ,######,      #####,   #    #        
            '#,     ,#'  ##    ##  '#,     ,#' ,#      #,         ##   #,  ,#        
             '#######'   ##     ##  '#######'  #'      '#     #####' # '####'        



                  #######################################################
                  #                        -***-                        #
                  #          Department of theory and spectroscopy      #
                  #    Directorship and core code : Frank Neese         #
                  #        Max Planck Institute fuer Kohlenforschung    #
                  #                Kaiser Wilhelm Platz 1               #
                  #                 D-45470 Muelheim/Ruhr               #
                  #                      Germany                        #
                  #                                                     #
                  #                  All rights reserved                #
                  #                        -***-                        #
                  #######################################################


                         Program Version 5.0.4 -  RELEASE  -


 With contributions from (in alphabetic order):
   Daniel Aravena         : Magnetic Suceptibility
   Michael Atanasov       : Ab Initio Ligand Field Theory (pilot matlab implementation)
   Alexander A. Auer      : GIAO ZORA, VPT2 properties, NMR spectrum
   Ute Becker             : Parallelization
   Giovanni Bistoni       : ED, misc. LED, open-shell LED, HFLD
   Martin Brehm           : Molecular dynamics
   Dmytro Bykov           : SCF Hessian
   Vijay G. Chilkuri      : MRCI spin determinant printing, contributions to CSF-ICE
   Dipayan Datta          : RHF DLPNO-CCSD density
   Achintya Kumar Dutta   : EOM-CC, STEOM-CC
   Dmitry Ganyushin       : Spin-Orbit,Spin-Spin,Magnetic field MRCI
   Miquel Garcia          : C-PCM and meta-GGA Hessian, CC/C-PCM, Gaussian charge scheme
   Yang Guo               : DLPNO-NEVPT2, F12-NEVPT2, CIM, IAO-localization
   Andreas Hansen         : Spin unrestricted coupled pair/coupled cluster methods
   Benjamin Helmich-Paris : MC-RPA, TRAH-SCF, COSX integrals
   Lee Huntington         : MR-EOM, pCC
   Robert Izsak           : Overlap fitted RIJCOSX, COSX-SCS-MP3, EOM
   Marcus Kettner         : VPT2
   Christian Kollmar      : KDIIS, OOCD, Brueckner-CCSD(T), CCSD density, CASPT2, CASPT2-K
   Simone Kossmann        : Meta GGA functionals, TD-DFT gradient, OOMP2, MP2 Hessian
   Martin Krupicka        : Initial AUTO-CI
   Lucas Lang             : DCDCAS
   Marvin Lechner         : AUTO-CI (C++ implementation), FIC-MRCC
   Dagmar Lenk            : GEPOL surface, SMD
   Dimitrios Liakos       : Extrapolation schemes; Compound Job, initial MDCI parallelization
   Dimitrios Manganas     : Further ROCIS development; embedding schemes
   Dimitrios Pantazis     : SARC Basis sets
   Anastasios Papadopoulos: AUTO-CI, single reference methods and gradients
   Taras Petrenko         : DFT Hessian,TD-DFT gradient, ASA, ECA, R-Raman, ABS, FL, XAS/XES, NRVS
   Peter Pinski           : DLPNO-MP2, DLPNO-MP2 Gradient
   Christoph Reimann      : Effective Core Potentials
   Marius Retegan         : Local ZFS, SOC
   Christoph Riplinger    : Optimizer, TS searches, QM/MM, DLPNO-CCSD(T), (RO)-DLPNO pert. Triples
   Tobias Risthaus        : Range-separated hybrids, TD-DFT gradient, RPA, STAB
   Michael Roemelt        : Original ROCIS implementation
   Masaaki Saitow         : Open-shell DLPNO-CCSD energy and density
   Barbara Sandhoefer     : DKH picture change effects
   Avijit Sen             : IP-ROCIS
   Kantharuban Sivalingam : CASSCF convergence, NEVPT2, FIC-MRCI
   Bernardo de Souza      : ESD, SOC TD-DFT
   Georgi Stoychev        : AutoAux, RI-MP2 NMR, DLPNO-MP2 response
   Willem Van den Heuvel  : Paramagnetic NMR
   Boris Wezisla          : Elementary symmetry handling
   Frank Wennmohs         : Technical directorship


 We gratefully acknowledge several colleagues who have allowed us to
 interface, adapt or use parts of their codes:
   Stefan Grimme, W. Hujo, H. Kruse, P. Pracht,  : VdW corrections, initial TS optimization,
                  C. Bannwarth, S. Ehlert          DFT functionals, gCP, sTDA/sTD-DF
   Ed Valeev, F. Pavosevic, A. Kumar             : LibInt (2-el integral package), F12 methods
   Garnet Chan, S. Sharma, J. Yang, R. Olivares  : DMRG
   Ulf Ekstrom                                   : XCFun DFT Library
   Mihaly Kallay                                 : mrcc  (arbitrary order and MRCC methods)
   Jiri Pittner, Ondrej Demel                    : Mk-CCSD
   Frank Weinhold                                : gennbo (NPA and NBO analysis)
   Christopher J. Cramer and Donald G. Truhlar   : smd solvation model
   Lars Goerigk                                  : TD-DFT with DH, B97 family of functionals
   V. Asgeirsson, H. Jonsson                     : NEB implementation
   FAccTs GmbH                                   : IRC, NEB, NEB-TS, DLPNO-Multilevel, CI-OPT
                                                   MM, QMMM, 2- and 3-layer-ONIOM, Crystal-QMMM,
                                                   LR-CPCM, SF, NACMEs, symmetry and pop. for TD-DFT,
                                                   nearIR, NL-DFT gradient (VV10), updates on ESD,
                                                   ML-optimized integration grids
   S Lehtola, MJT Oliveira, MAL Marques          : LibXC Library
   Liviu Ungur et al                             : ANISO software


 Your calculation uses the libint2 library for the computation of 2-el integrals
 For citations please refer to: http://libint.valeyev.net

 Your ORCA version has been built with support for libXC version: 5.1.0
 For citations please refer to: https://tddft.org/programs/libxc/

 This ORCA versions uses:
   CBLAS   interface :  Fast vector & matrix operations
   LAPACKE interface :  Fast linear algebra routines
   SCALAPACK package :  Parallel linear algebra routines
   Shared memory     :  Shared parallel matrices
   BLAS/LAPACK       :  OpenBLAS 0.3.15  USE64BITINT DYNAMIC_ARCH NO_AFFINITY Haswell SINGLE_THREADED
        Core in use  :  Haswell
   Copyright (c) 2011-2014, The OpenBLAS Project


Your calculation utilizes the atom-pairwise dispersion correction
based on tight binding partial charges (D4)
Cite in your paper:
E.Caldeweyher, C.Bannwarth, S.Grimme, J.Chem.Phys., (2017), 147, 034112.
E.Caldeweyher, S.Ehlert, A.Hansen, H.Neugebauer, S.Grimme, J.Chem.Phys., (2018), in progress.
   

================================================================================

----- Orbital basis set information -----
Your calculation utilizes the basis: def2-TZVP
   F. Weigend and R. Ahlrichs, Phys. Chem. Chem. Phys. 7, 3297 (2005).

----- AuxJ basis set information -----
Your calculation utilizes the auxiliary basis: def2/J
   F. Weigend, Phys. Chem. Chem. Phys. 8, 1057 (2006).

================================================================================
                                        WARNINGS
                       Please study these warnings very carefully!
================================================================================


WARNING: Geometry Optimization
  ===> : Switching off AutoStart
         For restart on a previous wavefunction, please use MOREAD

INFO   : the flag for use of the SHARK integral package has been found!

================================================================================
                                       INPUT FILE
================================================================================
NAME = IM2-neworca/IM2-neworca.inp
|  1> %pal nprocs 28 end
|  2> ! PBE0 def2-TZVP D4 CPCM(Toluene) Freq OPT
|  3> %maxcore 3000
|  4> %freq temp 433.15 end
|  5> 
|  6> * xyz 0 1
|  7> C        2.602996000      0.457633000      1.712544000
|  8> N        1.526826000      0.027834000      0.844170000
|  9> C        0.754746000     -1.042763000      1.192871000
| 10> O        0.993029000     -1.698532000      2.197340000
| 11> C       -0.440708000     -1.356267000      0.303788000
| 12> C       -1.599320000     -0.593490000      0.878748000
| 13> C       -2.425656000      0.293075000      0.255541000
| 14> N       -2.578989000      0.617472000     -1.078925000
| 15> C       -1.973167000     -0.063194000     -2.188000000
| 16> C       -3.571185000      1.578064000     -1.216815000
| 17> C       -4.041211000      1.866426000      0.005835000
| 18> N       -3.344126000      1.091496000      0.913746000
| 19> C       -3.516536000      1.087855000      2.332840000
| 20> C       -0.667362000     -2.862579000      0.244450000
| 21> C        1.252431000      0.860444000     -0.274548000
| 22> C        1.859421000      0.600756000     -1.497381000
| 23> C        1.615629000      1.428818000     -2.583098000
| 24> C        0.772149000      2.523205000     -2.447221000
| 25> C        0.176802000      2.789659000     -1.222058000
| 26> C        0.419588000      1.963257000     -0.135552000
| 27> H        2.767541000     -0.313928000      2.461143000
| 28> H        2.352200000      1.397579000      2.214711000
| 29> H        3.515413000      0.607611000      1.131046000
| 30> H       -2.045473000     -1.146242000     -2.059673000
| 31> H       -2.512329000      0.210623000     -3.094559000
| 32> H       -0.924502000      0.212946000     -2.318708000
| 33> H       -3.842683000      1.969015000     -2.182281000
| 34> H       -4.806093000      2.556589000      0.318395000
| 35> H       -3.872506000      0.115246000      2.689128000
| 36> H       -2.570103000      1.307770000      2.838108000
| 37> H       -4.247251000      1.848889000      2.602582000
| 38> H       -0.905323000     -3.252242000      1.235046000
| 39> H        0.217938000     -3.389909000     -0.123738000
| 40> H       -1.506189000     -3.078304000     -0.420741000
| 41> H        2.513064000     -0.259413000     -1.589863000
| 42> H        2.083980000      1.217727000     -3.537643000
| 43> H        0.578876000      3.168155000     -3.296749000
| 44> H       -0.486512000      3.639980000     -1.112536000
| 45> H       -0.049206000      2.153436000      0.822149000
| 46> H       -1.750227000     -0.715343000      1.944650000
| 47> H       -0.216446000     -0.997827000     -0.698825000
| 48> *
| 49> 
| 50>                          ****END OF INPUT****
================================================================================

                       *****************************
                       * Geometry Optimization Run *
                       *****************************

Geometry optimization settings:
Update method            Update   .... BFGS
Choice of coordinates    CoordSys .... Z-matrix Internals
Initial Hessian          InHess   .... Almoef's Model

Convergence Tolerances:
Energy Change            TolE     ....  5.0000e-06 Eh
Max. Gradient            TolMAXG  ....  3.0000e-04 Eh/bohr
RMS Gradient             TolRMSG  ....  1.0000e-04 Eh/bohr
Max. Displacement        TolMAXD  ....  4.0000e-03 bohr
RMS Displacement         TolRMSD  ....  2.0000e-03 bohr
Strict Convergence                ....  False
------------------------------------------------------------------------------
                        ORCA OPTIMIZATION COORDINATE SETUP
------------------------------------------------------------------------------

The optimization will be done in new redundant internal coordinates
Making redundant internal coordinates   ...  (new redundants) done
Evaluating the initial hessian          ...  (Almloef) done
Evaluating the coordinates              ...  done
Calculating the B-matrix                .... done
Calculating the G-matrix                .... done
Diagonalizing the G-matrix              .... done
Small eigenvalue found = 2.335e-03
Small eigenvalue found = 6.616e-03
Small eigenvalue found = 1.120e-02
Small eigenvalue found = 2.105e-02
The first mode is                       ....   93
The number of degrees of freedom        ....  117

    -----------------------------------------------------------------
                    Redundant Internal Coordinates


    -----------------------------------------------------------------
         Definition                    Initial Value    Approx d2E/dq
    -----------------------------------------------------------------
      1. B(N   1,C   0)                  1.4481         0.452073   
      2. B(C   2,N   1)                  1.3652         0.612886   
      3. B(O   3,C   2)                  1.2230         1.033443   
      4. B(C   4,C   2)                  1.5225         0.384077   
      5. B(C   5,C   4)                  1.5016         0.414663   
      6. B(C   6,C   5)                  1.3628         0.690461   
      7. B(N   7,C   6)                  1.3819         0.576578   
      8. B(C   8,N   7)                  1.4354         0.473633   
      9. B(C   9,N   7)                  1.3879         0.563978   
     10. B(C  10,C   9)                  1.3412         0.747338   
     11. B(N  11,C  10)                  1.3823         0.575658   
     12. B(N  11,C   6)                  1.3836         0.572949   
     13. B(C  12,N  11)                  1.4295         0.483952   
     14. B(C  13,C   4)                  1.5244         0.381306   
     15. B(C  14,N   1)                  1.4213         0.498834   
     16. B(C  15,C  14)                  1.3897         0.625544   
     17. B(C  16,C  15)                  1.3870         0.631609   
     18. B(C  17,C  16)                  1.3884         0.628522   
     19. B(C  18,C  17)                  1.3880         0.629474   
     20. B(C  19,C  18)                  1.3865         0.632883   
     21. B(C  19,C  14)                  1.3889         0.627243   
     22. B(H  20,C   0)                  1.0876         0.363345   
     23. B(H  21,C   0)                  1.0948         0.353817   
     24. B(H  22,C   0)                  1.0923         0.357059   
     25. B(H  23,C   8)                  1.0930         0.356129   
     26. B(H  24,C   8)                  1.0897         0.360452   
     27. B(H  25,C   8)                  1.0923         0.357120   
     28. B(H  25,C  17)                  2.8692         0.000522   
     29. B(H  26,C   9)                  1.0764         0.378521   
     30. B(H  27,C  10)                  1.0766         0.378273   
     31. B(H  28,C  12)                  1.0953         0.353191   
     32. B(H  29,C  12)                  1.0952         0.353327   
     33. B(H  30,C  12)                  1.0890         0.361452   
     34. B(H  31,C  13)                  1.0908         0.359105   
     35. B(H  32,C  13)                  1.0943         0.354514   
     36. B(H  33,C  13)                  1.0921         0.357354   
     37. B(H  34,C  15)                  1.0843         0.367728   
     38. B(H  35,C  16)                  1.0840         0.368118   
     39. B(H  36,C  17)                  1.0840         0.368152   
     40. B(H  37,C  18)                  1.0840         0.368144   
     41. B(H  38,C  19)                  1.0831         0.369331   
     42. B(H  39,C   5)                  1.0834         0.368930   
     43. B(H  40,C   4)                  1.0881         0.362595   
     44. A(N   1,C   0,H  22)          110.0165         0.332211   
     45. A(H  20,C   0,H  21)          109.1494         0.290446   
     46. A(N   1,C   0,H  20)          108.3394         0.333173   
     47. A(H  20,C   0,H  22)          109.7226         0.290862   
     48. A(N   1,C   0,H  21)          111.0782         0.331709   
     49. A(H  21,C   0,H  22)          108.5212         0.289651   
     50. A(C   2,N   1,C  14)          123.4524         0.411268   
     51. A(C   0,N   1,C   2)          119.9913         0.404168   
     52. A(C   0,N   1,C  14)          116.2070         0.389816   
     53. A(N   1,C   2,O   3)          121.3363         0.469027   
     54. A(N   1,C   2,C   4)          117.1540         0.395272   
     55. A(O   3,C   2,C   4)          121.4799         0.433719   
     56. A(C   5,C   4,H  40)          110.1513         0.330320   
     57. A(C   5,C   4,C  13)          113.7111         0.371213   
     58. A(C   2,C   4,C   5)          106.1202         0.371676   
     59. A(C   2,C   4,C  13)          110.0568         0.366361   
     60. A(C   2,C   4,H  40)          107.9643         0.326171   
     61. A(C  13,C   4,H  40)          108.6796         0.325782   
     62. A(C   4,C   5,C   6)          128.5515         0.411807   
     63. A(C   6,C   5,H  39)          116.0160         0.360904   
     64. A(C   4,C   5,H  39)          115.2807         0.331267   
     65. A(C   5,C   6,N   7)          131.4232         0.433951   
     66. A(N   7,C   6,N  11)          104.4941         0.416967   
     67. A(C   5,C   6,N  11)          124.0821         0.433458   
     68. A(C   6,N   7,C   9)          109.7400         0.415798   
     69. A(C   8,N   7,C   9)          123.5849         0.401569   
     70. A(C   6,N   7,C   8)          126.0156         0.403136   
     71. A(H  24,C   8,H  25)          108.1762         0.290505   
     72. A(H  23,C   8,H  25)          109.1517         0.289955   
     73. A(N   7,C   8,H  25)          112.1968         0.334798   
     74. A(H  23,C   8,H  24)          108.2955         0.290378   
     75. A(N   7,C   8,H  24)          108.3494         0.335315   
     76. A(N   7,C   8,H  23)          110.5631         0.334644   
     77. A(N   7,C   9,C  10)          107.9849         0.438435   
     78. A(C  10,C   9,H  26)          130.6276         0.367432   
     79. A(N   7,C   9,H  26)          121.3863         0.348096   
     80. A(C   9,C  10,N  11)          107.5466         0.440060   
     81. A(N  11,C  10,H  27)          121.8016         0.349262   
     82. A(C   9,C  10,H  27)          130.6509         0.367391   
     83. A(C   6,N  11,C  10)          110.2316         0.416849   
     84. A(C  10,N  11,C  12)          126.3434         0.404558   
     85. A(C   6,N  11,C  12)          123.4249         0.404222   
     86. A(H  29,C  12,H  30)          108.9817         0.290144   
     87. A(H  28,C  12,H  30)          108.7794         0.290127   
     88. A(N  11,C  12,H  30)          108.9680         0.336675   
     89. A(H  28,C  12,H  29)          108.0052         0.289095   
     90. A(N  11,C  12,H  29)          110.6865         0.335404   
     91. A(N  11,C  12,H  28)          111.3694         0.335383   
     92. A(H  32,C  13,H  33)          108.7406         0.289778   
     93. A(H  31,C  13,H  33)          108.3629         0.290364   
     94. A(C   4,C  13,H  33)          109.4570         0.325003   
     95. A(H  31,C  13,H  32)          108.0545         0.290001   
     96. A(C   4,C  13,H  32)          111.6533         0.324577   
     97. A(C   4,C  13,H  31)          110.4924         0.325264   
     98. A(C  15,C  14,C  19)          119.8903         0.435672   
     99. A(N   1,C  14,C  19)          120.1410         0.415649   
    100. A(N   1,C  14,C  15)          119.9219         0.415448   
    101. A(C  16,C  15,H  34)          120.8497         0.355280   
    102. A(C  14,C  15,H  34)          119.1175         0.354699   
    103. A(C  14,C  15,C  16)          120.0295         0.436217   
    104. A(C  17,C  16,H  35)          120.1431         0.355048   
    105. A(C  15,C  16,H  35)          119.8068         0.355344   
    106. A(C  15,C  16,C  17)          120.0500         0.436590   
    107. A(C  18,C  17,H  36)          120.0717         0.355145   
    108. A(C  16,C  17,H  36)          120.0407         0.355054   
    109. A(C  16,C  17,C  18)          119.8875         0.436324   
    110. A(C  17,C  18,C  19)          120.1444         0.436868   
    111. A(C  19,C  18,H  37)          119.7047         0.355469   
    112. A(C  17,C  18,H  37)          120.1490         0.355144   
    113. A(C  14,C  19,C  18)          119.9887         0.436589   
    114. A(C  18,C  19,H  38)          120.8274         0.355664   
    115. A(C  14,C  19,H  38)          119.1720         0.355124   
    116. D(C   2,N   1,C   0,H  20)     12.0955         0.017436   
    117. D(C  14,N   1,C   0,H  21)     65.6656         0.017436   
    118. D(C  14,N   1,C   0,H  22)    -54.5152         0.017436   
    119. D(C   2,N   1,C   0,H  22)    132.0384         0.017436   
    120. D(C  14,N   1,C   0,H  20)   -174.4581         0.017436   
    121. D(C   2,N   1,C   0,H  21)   -107.7807         0.017436   
    122. D(O   3,C   2,N   1,C   0)     -3.8152         0.030363   
    123. D(C   4,C   2,N   1,C  14)      1.2748         0.030363   
    124. D(O   3,C   2,N   1,C  14)   -176.7654         0.030363   
    125. D(C   4,C   2,N   1,C   0)    174.2250         0.030363   
    126. D(H  40,C   4,C   2,N   1)     27.4697         0.010993   
    127. D(C  13,C   4,C   2,O   3)    -36.0163         0.010993   
    128. D(C   5,C   4,C   2,O   3)     87.4280         0.010993   
    129. D(C  13,C   4,C   2,N   1)    145.9465         0.010993   
    130. D(C   5,C   4,C   2,N   1)    -90.6091         0.010993   
    131. D(H  40,C   4,C   2,O   3)   -154.4931         0.010993   
    132. D(H  39,C   5,C   4,H  40)   -166.4271         0.012725   
    133. D(H  39,C   5,C   4,C  13)     71.3113         0.012725   
    134. D(H  39,C   5,C   4,C   2)    -49.8091         0.012725   
    135. D(C   6,C   5,C   4,H  40)      8.8718         0.012725   
    136. D(C   6,C   5,C   4,C  13)   -113.3898         0.012725   
    137. D(C   6,C   5,C   4,C   2)    125.4898         0.012725   
    138. D(N  11,C   6,C   5,C   4)   -170.1960         0.033500   
    139. D(N   7,C   6,C   5,H  39)   -174.5774         0.033500   
    140. D(N   7,C   6,C   5,C   4)     10.1528         0.033500   
    141. D(N  11,C   6,C   5,H  39)      5.0738         0.033500   
    142. D(C   9,N   7,C   6,N  11)     -0.4477         0.026644   
    143. D(C   8,N   7,C   6,N  11)   -171.3616         0.026644   
    144. D(C   8,N   7,C   6,C   5)      8.3400         0.026644   
    145. D(C   9,N   7,C   6,C   5)    179.2540         0.026644   
    146. D(H  23,C   8,N   7,C   6)     43.9553         0.019174   
    147. D(H  25,C   8,N   7,C   9)    112.1258         0.019174   
    148. D(H  25,C   8,N   7,C   6)    -78.1521         0.019174   
    149. D(H  24,C   8,N   7,C   9)     -7.2337         0.019174   
    150. D(H  24,C   8,N   7,C   6)    162.4884         0.019174   
    151. D(H  23,C   8,N   7,C   9)   -125.7668         0.019174   
    152. D(H  26,C   9,N   7,C   8)     -8.9907         0.025423   
    153. D(H  26,C   9,N   7,C   6)    179.8292         0.025423   
    154. D(C  10,C   9,N   7,C   8)    171.3708         0.025423   
    155. D(C  10,C   9,N   7,C   6)      0.1906         0.025423   
    156. D(H  27,C  10,C   9,H  26)      0.2114         0.039803   
    157. D(H  27,C  10,C   9,N   7)    179.8049         0.039803   
    158. D(N  11,C  10,C   9,H  26)   -179.4392         0.039803   
    159. D(N  11,C  10,C   9,N   7)      0.1543         0.039803   
    160. D(C  12,N  11,C  10,H  27)     -0.2083         0.026553   
    161. D(C  12,N  11,C  10,C   9)    179.4797         0.026553   
    162. D(C   6,N  11,C  10,H  27)    179.8636         0.026553   
    163. D(C   6,N  11,C  10,C   9)     -0.4484         0.026553   
    164. D(C  12,N  11,C   6,N   7)   -179.3839         0.026288   
    165. D(C  12,N  11,C   6,C   5)      0.8862         0.026288   
    166. D(C  10,N  11,C   6,N   7)      0.5467         0.026288   
    167. D(C  10,N  11,C   6,C   5)   -179.1832         0.026288   
    168. D(H  30,C  12,N  11,C  10)     -3.7616         0.020042   
    169. D(H  30,C  12,N  11,C   6)    176.1576         0.020042   
    170. D(H  29,C  12,N  11,C  10)   -123.5915         0.020042   
    171. D(H  29,C  12,N  11,C   6)     56.3277         0.020042   
    172. D(H  28,C  12,N  11,C  10)    116.2400         0.020042   
    173. D(H  28,C  12,N  11,C   6)    -63.8408         0.020042   
    174. D(H  32,C  13,C   4,C   5)   -176.6271         0.011584   
    175. D(H  32,C  13,C   4,C   2)    -57.7337         0.011584   
    176. D(H  31,C  13,C   4,H  40)   -179.4093         0.011584   
    177. D(H  31,C  13,C   4,C   5)    -56.3387         0.011584   
    178. D(H  31,C  13,C   4,C   2)     62.5547         0.011584   
    179. D(H  33,C  13,C   4,H  40)    -60.1529         0.011584   
    180. D(H  33,C  13,C   4,C   5)     62.9177         0.011584   
    181. D(H  33,C  13,C   4,C   2)   -178.1890         0.011584   
    182. D(H  32,C  13,C   4,H  40)     60.3023         0.011584   
    183. D(C  19,C  14,N   1,C   2)     88.5053         0.019669   
    184. D(C  19,C  14,N   1,C   0)    -84.6905         0.019669   
    185. D(C  15,C  14,N   1,C   2)    -93.9849         0.019669   
    186. D(C  15,C  14,N   1,C   0)     92.8194         0.019669   
    187. D(H  34,C  15,C  14,C  19)    179.5472         0.027107   
    188. D(H  34,C  15,C  14,N   1)      2.0311         0.027107   
    189. D(C  16,C  15,C  14,C  19)     -1.0968         0.027107   
    190. D(C  16,C  15,C  14,N   1)   -178.6129         0.027107   
    191. D(H  35,C  16,C  15,H  34)     -0.1043         0.027669   
    192. D(H  35,C  16,C  15,C  14)   -179.4490         0.027669   
    193. D(C  17,C  16,C  15,H  34)    179.7807         0.027669   
    194. D(C  17,C  16,C  15,C  14)      0.4360         0.027669   
    195. D(H  36,C  17,C  16,H  35)      0.1078         0.029759   
    196. D(H  36,C  17,C  16,C  15)   -179.7768         0.029759   
    197. D(C  18,C  17,C  16,H  35)   -179.9066         0.029759   
    198. D(C  18,C  17,C  16,C  15)      0.2088         0.029759   
    199. D(H  37,C  18,C  17,H  36)      0.3030         0.029855   
    200. D(H  37,C  18,C  17,C  16)   -179.6825         0.029855   
    201. D(C  19,C  18,C  17,H  36)    179.7938         0.029855   
    202. D(C  19,C  18,C  17,C  16)     -0.1917         0.029855   
    203. D(H  38,C  19,C  18,C  17)   -179.2024         0.027788   
    204. D(C  14,C  19,C  18,H  37)    179.0227         0.027788   
    205. D(C  14,C  19,C  18,C  17)     -0.4704         0.027788   
    206. D(H  38,C  19,C  14,C  15)    179.8666         0.027264   
    207. D(H  38,C  19,C  14,N   1)     -2.6228         0.027264   
    208. D(C  18,C  19,C  14,C  15)      1.1135         0.027264   
    209. D(H  38,C  19,C  18,H  37)      0.2906         0.027788   
    210. D(C  18,C  19,C  14,N   1)    178.6242         0.027264   
    -----------------------------------------------------------------

Number of atoms                         .... 41
Number of degrees of freedom            .... 210

         *************************************************************
         *                GEOMETRY OPTIMIZATION CYCLE   1            *
         *************************************************************
---------------------------------
CARTESIAN COORDINATES (ANGSTROEM)
---------------------------------
  C    -1.146171   -3.228280    1.324479
  N    -0.870230   -2.672622    0.016006
  C    -1.161694   -3.392871   -1.106596
  O    -1.591572   -4.535630   -1.035360
  C    -0.972537   -2.696709   -2.447278
  C    -2.288162   -2.048721   -2.769858
  C    -2.541009   -0.743752   -3.070445
  N    -1.693025    0.311337   -3.348647
  C    -0.274276    0.223986   -3.548665
  C    -2.436504    1.453359   -3.611991
  C    -3.735133    1.137038   -3.500336
  N    -3.810543   -0.201567   -3.163734
  C    -5.005869   -0.951748   -2.935550
  C    -0.509834   -3.700645   -3.496995
  C    -0.431710   -1.320947   -0.012292
  C     0.927723   -1.032849    0.000000
  C     1.357842    0.285839    0.001608
  C     0.430893    1.319455    0.000000
  C    -0.926769    1.030937    0.001172
  C    -1.358615   -0.286606   -0.000000
  H    -1.373857   -4.285178    1.206335
  H    -1.999419   -2.727266    1.793065
  H    -0.275016   -3.109098    1.972620
  H    -0.028442   -0.627235   -4.188789
  H     0.058607    1.134177   -4.047028
  H     0.270490    0.132834   -2.606299
  H    -1.961041    2.389405   -3.849579
  H    -4.617402    1.741478   -3.624148
  H    -5.123343   -1.750358   -3.675903
  H    -4.990352   -1.411233   -1.941528
  H    -5.862200   -0.282362   -3.003049
  H    -1.267815   -4.469944   -3.650037
  H     0.420199   -4.195161   -3.200477
  H    -0.346143   -3.185399   -4.445905
  H     1.640301   -1.850121   -0.002322
  H     2.419169    0.506430    0.002248
  H     0.767167    2.349959   -0.002434
  H    -1.654152    1.834620   -0.005272
  H    -2.415246   -0.524376   -0.011974
  H    -3.154925   -2.692852   -2.682810
  H    -0.201194   -1.938859   -2.325922
  X    -0.000000   -0.000000    0.000000
  X    -0.000000   -0.000000    0.000000
  X     0.000000    0.000000    0.000000

----------------------------
CARTESIAN COORDINATES (A.U.)
----------------------------
  NO LB      ZA    FRAG     MASS         X           Y           Z
   0 C     6.0000    0    12.011    4.918950    0.864801    3.236239
   1 N     7.0000    0    14.007    2.885283    0.052599    1.595250
   2 C     6.0000    0    12.011    1.426263   -1.970536    2.254200
   3 O     8.0000    0    15.999    1.876553   -3.209760    4.152371
   4 C     6.0000    0    12.011   -0.832817   -2.562973    0.574076
   5 C     6.0000    0    12.011   -3.022277   -1.121534    1.660593
   6 C     6.0000    0    12.011   -4.583826    0.553831    0.482903
   7 N     7.0000    0    14.007   -4.873583    1.166853   -2.038873
   8 C     6.0000    0    12.011   -3.728745   -0.119419   -4.134721
   9 C     6.0000    0    12.011   -6.748562    2.982109   -2.299447
  10 C     6.0000    0    12.011   -7.636782    3.527034    0.011027
  11 N     7.0000    0    14.007   -6.319482    2.062629    1.726730
  12 C     6.0000    0    12.011   -6.645290    2.055748    4.408429
  13 C     6.0000    0    12.011   -1.261131   -5.409490    0.461944
  14 C     6.0000    0    12.011    2.366752    1.626004   -0.518821
  15 C     6.0000    0    12.011    3.513796    1.135264   -2.829640
  16 C     6.0000    0    12.011    3.053096    2.700075   -4.881348
  17 C     6.0000    0    12.011    1.459150    4.768166   -4.624577
  18 C     6.0000    0    12.011    0.334107    5.271692   -2.309355
  19 C     6.0000    0    12.011    0.792906    3.710018   -0.256156
  20 H     1.0000    0     1.008    5.229895   -0.593238    4.650886
  21 H     1.0000    0     1.008    4.445014    2.641042    4.185197
  22 H     1.0000    0     1.008    6.643168    1.148218    2.137367
  23 H     1.0000    0     1.008   -3.865384   -2.166083   -3.892218
  24 H     1.0000    0     1.008   -4.747614    0.398020   -5.847869
  25 H     1.0000    0     1.008   -1.747056    0.402410   -4.381723
  26 H     1.0000    0     1.008   -7.261618    3.720899   -4.123913
  27 H     1.0000    0     1.008   -9.082200    4.831253    0.601679
  28 H     1.0000    0     1.008   -7.317976    0.217783    5.081715
  29 H     1.0000    0     1.008   -4.856791    2.471327    5.363247
  30 H     1.0000    0     1.008   -8.026141    3.493894    4.918167
  31 H     1.0000    0     1.008   -1.710813   -6.145847    2.333899
  32 H     1.0000    0     1.008    0.411843   -6.406000   -0.233831
  33 H     1.0000    0     1.008   -2.846285   -5.817152   -0.795085
  34 H     1.0000    0     1.008    4.749003   -0.490220   -3.004406
  35 H     1.0000    0     1.008    3.938151    2.301171   -6.685176
  36 H     1.0000    0     1.008    1.093917    5.986945   -6.229953
  37 H     1.0000    0     1.008   -0.919374    6.878565   -2.102388
  38 H     1.0000    0     1.008   -0.092986    4.069404    1.553636
  39 H     1.0000    0     1.008   -3.307450   -1.351802    3.674856
  40 H     1.0000    0     1.008   -0.409024   -1.885620   -1.320588

--------------------------------
INTERNAL COORDINATES (ANGSTROEM)
--------------------------------
 C      0   0   0     0.000000000000     0.00000000     0.00000000
 N      1   0   0     1.448082336463     0.00000000     0.00000000
 C      2   1   0     1.365239118327   119.99125417     0.00000000
 O      3   2   1     1.223016656228   121.33630251   356.18478227
 C      3   2   1     1.522453153638   117.15397341   174.22497104
 C      5   3   2     1.501595657916   106.12021770   269.39085839
 C      6   5   3     1.362796994776   128.55152870   125.48976787
 N      7   6   5     1.381862485074   131.42316190    10.15280742
 C      8   7   6     1.435400242046   126.01561117     8.34004420
 C      8   7   6     1.387877352283   109.73995658   179.25395659
 C     10   8   7     1.341249457118   107.98488600     0.19064626
 N     11  10   8     1.382297502727   107.54662350     0.15428299
 C     12  11  10     1.429533576317   126.34340146   179.47973306
 C      5   3   2     1.524424112675   110.05684463   145.94647377
 C      2   1   3     1.421288848774   116.20695145   173.44633333
 C     15   2   1     1.389674517048   119.92188371    92.81938018
 C     16  15   2     1.387048167584   120.02954839   181.38706353
 C     17  16  15     1.388381782975   120.04995777     0.43599257
 C     18  17  16     1.387969798336   119.88754163     0.20877977
 C     19  18  17     1.386499403331   120.14440273   359.80825579
 H      1   2   3     1.087557766993   108.33939096    12.09554395
 H      1   2   3     1.094791675352   111.07819559   252.21927566
 H      1   2   3     1.092308613157   110.01646576   132.03844937
 H      9   8   7     1.093018273804   110.56310428    43.95532889
 H      9   8   7     1.089734202553   108.34936358   162.48840287
 H      9   8   7     1.092261948018   112.19679956   281.84786860
 H     10   8   7     1.076419270341   121.38632759   179.82920995
 H     11  10   8     1.076597972362   130.65089603   179.80486166
 H     13  12  11     1.095273503160   111.36940953   116.24002637
 H     13  12  11     1.095168380907   110.68648083   236.40850559
 H     13  12  11     1.088980214212   108.96800439   356.23843718
 H     14   5   3     1.090753467245   110.49243083    62.55470857
 H     14   5   3     1.094255647572   111.65328469   302.26626918
 H     14   5   3     1.092083823722   109.45701340   181.81104892
 H     16  15   2     1.084293687307   119.11752941     2.03106576
 H     17  16  15     1.084005639518   119.80680280   180.55100839
 H     18  17  16     1.083980063384   120.04073343   180.22323845
 H     19  18  17     1.083986316390   120.14898768   180.31750832
 H     20  19  18     1.083109907571   120.82737373   180.79755081
 H      6   5   3     1.083405810332   115.28072737   310.19086966
 H      5   3   2     1.088120170759   107.96427906    27.46973936

---------------------------
INTERNAL COORDINATES (A.U.)
---------------------------
 C      0   0   0     0.000000000000     0.00000000     0.00000000
 N      1   0   0     2.736479035284     0.00000000     0.00000000
 C      2   1   0     2.579928040954   119.99125417     0.00000000
 O      3   2   1     2.311166537495   121.33630251   356.18478227
 C      3   2   1     2.877019512100   117.15397341   174.22497104
 C      5   3   2     2.837604557347   106.12021770   269.39085839
 C      6   5   3     2.575313096257   128.55152870   125.48976787
 N      7   6   5     2.611341651529   131.42316190    10.15280742
 C      8   7   6     2.712513350031   126.01561117     8.34004420
 C      8   7   6     2.622708103287   109.73995658   179.25395659
 C     10   8   7     2.534594151224   107.98488600     0.19064626
 N     11  10   8     2.612163715758   107.54662350     0.15428299
 C     12  11  10     2.701426958484   126.34340146   179.47973306
 C      5   3   2     2.880744084901   110.05684463   145.94647377
 C      2   1   3     2.685846681379   116.20695145   173.44633333
 C     15   2   1     2.626104252510   119.92188371    92.81938018
 C     16  15   2     2.621141171290   120.02954839   181.38706353
 C     17  16  15     2.623661339149   120.04995777     0.43599257
 C     18  17  16     2.622882801010   119.88754163     0.20877977
 C     19  18  17     2.620104157140   120.14440273   359.80825579
 H      1   2   3     2.055186334436   108.33939096    12.09554395
 H      1   2   3     2.068856440113   111.07819559   252.21927566
 H      1   2   3     2.064164132590   110.01646576   132.03844937
 H      9   8   7     2.065505196861   110.56310428    43.95532889
 H      9   8   7     2.059299201592   108.34936358   162.48840287
 H      9   8   7     2.064075948258   112.19679956   281.84786860
 H     10   8   7     2.034137626219   121.38632759   179.82920995
 H     11  10   8     2.034475324098   130.65089603   179.80486166
 H     13  12  11     2.069766962713   111.36940953   116.24002637
 H     13  12  11     2.069568310444   110.68648083   236.40850559
 H     13  12  11     2.057874370119   108.96800439   356.23843718
 H     14   5   3     2.061225332717   110.49243083    62.55470857
 H     14   5   3     2.067843494408   111.65328469   302.26626918
 H     14   5   3     2.063739342120   109.45701340   181.81104892
 H     16  15   2     2.049018117750   119.11752941     2.03106576
 H     17  16  15     2.048473786315   119.80680280   180.55100839
 H     18  17  16     2.048425454426   120.04073343   180.22323845
 H     19  18  17     2.048437270895   120.14898768   180.31750832
 H     20  19  18     2.046781098246   120.82737373   180.79755081
 H      6   5   3     2.047340273427   115.28072737   310.19086966
 H      5   3   2     2.056249123530   107.96427906    27.46973936

---------------------
BASIS SET INFORMATION
---------------------
There are 4 groups of distinct atoms

 Group   1 Type C   : 11s6p2d1f contracted to 5s3p2d1f pattern {62111/411/11/1}
 Group   2 Type N   : 11s6p2d1f contracted to 5s3p2d1f pattern {62111/411/11/1}
 Group   3 Type O   : 11s6p2d1f contracted to 5s3p2d1f pattern {62111/411/11/1}
 Group   4 Type H   : 5s1p contracted to 3s1p pattern {311/1}

Atom   0C    basis set group =>   1
Atom   1N    basis set group =>   2
Atom   2C    basis set group =>   1
Atom   3O    basis set group =>   3
Atom   4C    basis set group =>   1
Atom   5C    basis set group =>   1
Atom   6C    basis set group =>   1
Atom   7N    basis set group =>   2
Atom   8C    basis set group =>   1
Atom   9C    basis set group =>   1
Atom  10C    basis set group =>   1
Atom  11N    basis set group =>   2
Atom  12C    basis set group =>   1
Atom  13C    basis set group =>   1
Atom  14C    basis set group =>   1
Atom  15C    basis set group =>   1
Atom  16C    basis set group =>   1
Atom  17C    basis set group =>   1
Atom  18C    basis set group =>   1
Atom  19C    basis set group =>   1
Atom  20H    basis set group =>   4
Atom  21H    basis set group =>   4
Atom  22H    basis set group =>   4
Atom  23H    basis set group =>   4
Atom  24H    basis set group =>   4
Atom  25H    basis set group =>   4
Atom  26H    basis set group =>   4
Atom  27H    basis set group =>   4
Atom  28H    basis set group =>   4
Atom  29H    basis set group =>   4
Atom  30H    basis set group =>   4
Atom  31H    basis set group =>   4
Atom  32H    basis set group =>   4
Atom  33H    basis set group =>   4
Atom  34H    basis set group =>   4
Atom  35H    basis set group =>   4
Atom  36H    basis set group =>   4
Atom  37H    basis set group =>   4
Atom  38H    basis set group =>   4
Atom  39H    basis set group =>   4
Atom  40H    basis set group =>   4
---------------------------------
AUXILIARY/J BASIS SET INFORMATION
---------------------------------
There are 4 groups of distinct atoms

 Group   1 Type C   : 12s5p4d2f1g contracted to 6s4p3d1f1g pattern {711111/2111/211/2/1}
 Group   2 Type N   : 12s5p4d2f1g contracted to 6s4p3d1f1g pattern {711111/2111/211/2/1}
 Group   3 Type O   : 12s5p4d2f1g contracted to 6s4p3d1f1g pattern {711111/2111/211/2/1}
 Group   4 Type H   : 5s2p1d contracted to 3s1p1d pattern {311/2/1}

Atom   0C    basis set group =>   1
Atom   1N    basis set group =>   2
Atom   2C    basis set group =>   1
Atom   3O    basis set group =>   3
Atom   4C    basis set group =>   1
Atom   5C    basis set group =>   1
Atom   6C    basis set group =>   1
Atom   7N    basis set group =>   2
Atom   8C    basis set group =>   1
Atom   9C    basis set group =>   1
Atom  10C    basis set group =>   1
Atom  11N    basis set group =>   2
Atom  12C    basis set group =>   1
Atom  13C    basis set group =>   1
Atom  14C    basis set group =>   1
Atom  15C    basis set group =>   1
Atom  16C    basis set group =>   1
Atom  17C    basis set group =>   1
Atom  18C    basis set group =>   1
Atom  19C    basis set group =>   1
Atom  20H    basis set group =>   4
Atom  21H    basis set group =>   4
Atom  22H    basis set group =>   4
Atom  23H    basis set group =>   4
Atom  24H    basis set group =>   4
Atom  25H    basis set group =>   4
Atom  26H    basis set group =>   4
Atom  27H    basis set group =>   4
Atom  28H    basis set group =>   4
Atom  29H    basis set group =>   4
Atom  30H    basis set group =>   4
Atom  31H    basis set group =>   4
Atom  32H    basis set group =>   4
Atom  33H    basis set group =>   4
Atom  34H    basis set group =>   4
Atom  35H    basis set group =>   4
Atom  36H    basis set group =>   4
Atom  37H    basis set group =>   4
Atom  38H    basis set group =>   4
Atom  39H    basis set group =>   4
Atom  40H    basis set group =>   4


           ************************************************************
           *        Program running with 28 parallel MPI-processes    *
           *              working on a common directory               *
           ************************************************************
------------------------------------------------------------------------------
                           ORCA GTO INTEGRAL CALCULATION
                           -- RI-GTO INTEGRALS CHOSEN --
------------------------------------------------------------------------------
------------------------------------------------------------------------------
                   ___                                                        
                  /   \      - P O W E R E D   B Y -                         
                 /     \                                                     
                 |  |  |   _    _      __       _____    __    __             
                 |  |  |  | |  | |    /  \     |  _  \  |  |  /  |          
                  \  \/   | |  | |   /    \    | | | |  |  | /  /          
                 / \  \   | |__| |  /  /\  \   | |_| |  |  |/  /          
                |  |  |   |  __  | /  /__\  \  |    /   |      \           
                |  |  |   | |  | | |   __   |  |    \   |  |\   \          
                \     /   | |  | | |  |  |  |  | |\  \  |  | \   \       
                 \___/    |_|  |_| |__|  |__|  |_| \__\ |__|  \__/        
                                                                              
                      - O R C A' S   B I G   F R I E N D -                    
                                      &                                       
                       - I N T E G R A L  F E E D E R -                       
                                                                              
 v1 FN, 2020, v2 2021                                                         
------------------------------------------------------------------------------


Reading SHARK input file IM2-neworca/IM2-neworca.SHARKINP.tmp ... ok
----------------------
SHARK INTEGRAL PACKAGE
----------------------

Number of atoms                             ...     41
Number of basis functions                   ...    746
Number of shells                            ...    304
Maximum angular momentum                    ...      3
Integral batch strategy                     ... SHARK/LIBINT Hybrid
RI-J (if used) integral strategy            ... SPLIT-RIJ (Revised 2003 algorithm where possible)
Printlevel                                  ...      1
Contraction scheme used                     ... SEGMENTED contraction
Coulomb Range Separation                    ... NOT USED
Exchange Range Separation                   ... NOT USED
Finite Nucleus Model                        ... NOT USED
Auxiliary Coulomb fitting basis             ... AVAILABLE
   # of basis functions in Aux-J            ...   1211
   # of shells in Aux-J                     ...    405
   Maximum angular momentum in Aux-J        ...      4
Auxiliary J/K fitting basis                 ... NOT available
Auxiliary Correlation fitting basis         ... NOT available
Auxiliary 'external' fitting basis          ... NOT available
Integral threshold                          ...     2.500000e-11
Primitive cut-off                           ...     2.500000e-12
Primitive pair pre-selection threshold      ...     2.500000e-12

Calculating pre-screening integrals         ... done (  0.1 sec) Dimension = 304
Organizing shell pair data                  ... done (  0.4 sec)
Shell pair information
Total number of shell pairs                 ...     46360
Shell pairs after pre-screening             ...     36453
Total number of primitive shell pairs       ...    139104
Primitive shell pairs kept                  ...     73747
          la=0 lb=0:  10176 shell pairs
          la=1 lb=0:  10548 shell pairs
          la=1 lb=1:   2805 shell pairs
          la=2 lb=0:   5085 shell pairs
          la=2 lb=1:   2688 shell pairs
          la=2 lb=2:    678 shell pairs
          la=3 lb=0:   2388 shell pairs
          la=3 lb=1:   1286 shell pairs
          la=3 lb=2:    635 shell pairs
          la=3 lb=3:    164 shell pairs

Calculating one electron integrals          ... done (  0.1 sec)
Calculating RI/J V-Matrix + Cholesky decomp.... done (  0.1 sec)
Calculating Nuclear repulsion               ... done (  0.0 sec) ENN=   1638.351430466097 Eh

SHARK setup successfully completed in   1.3 seconds

Maximum memory used throughout the entire GTOINT-calculation: 54.1 MB


           ************************************************************
           *        Program running with 28 parallel MPI-processes    *
           *              working on a common directory               *
           ************************************************************
-------------------------------------------------------------------------------
                                 ORCA SCF
-------------------------------------------------------------------------------

------------
SCF SETTINGS
------------
Hamiltonian:
 Density Functional     Method          .... DFT(GTOs)
 Exchange Functional    Exchange        .... PBE
   PBE kappa parameter   XKappa         ....  0.804000
   PBE mue parameter    XMuePBE         ....  0.219520
 Correlation Functional Correlation     .... PBE
   PBE beta parameter  CBetaPBE         ....  0.066725
 LDA part of GGA corr.  LDAOpt          .... PW91-LDA
 Gradients option       PostSCFGGA      .... off
 Hybrid DFT is turned on
   Fraction HF Exchange ScalHFX         ....  0.250000
   Scaling of DF-GGA-X  ScalDFX         ....  0.750000
   Scaling of DF-GGA-C  ScalDFC         ....  1.000000
   Scaling of DF-LDA-C  ScalLDAC        ....  1.000000
   Perturbative correction              ....  0.000000
   Density functional embedding theory  .... OFF
   NL short-range parameter             ....  6.900000
 RI-approximation to the Coulomb term is turned on
   Number of AuxJ basis functions       .... 1211
   RIJ-COSX (HFX calculated with COS-X)).... on


General Settings:
 Integral files         IntName         .... IM2-neworca/IM2-neworca
 Hartree-Fock type      HFTyp           .... RHF
 Total Charge           Charge          ....    0
 Multiplicity           Mult            ....    1
 Number of Electrons    NEL             ....  146
 Basis Dimension        Dim             ....  746
 Nuclear Repulsion      ENuc            ....   1638.3514304661 Eh

Convergence Acceleration:
 DIIS                   CNVDIIS         .... on
   Start iteration      DIISMaxIt       ....    12
   Startup error        DIISStart       ....  0.200000
   # of expansion vecs  DIISMaxEq       ....     5
   Bias factor          DIISBfac        ....   1.050
   Max. coefficient     DIISMaxC        ....  10.000
 Trust-Rad. Augm. Hess. CNVTRAH         .... auto
   Auto Start mean grad. ratio tolernc. ....  1.125000
   Auto Start start iteration           ....    20
   Auto Start num. interpolation iter.  ....    10
   Max. Number of Micro iterations      ....    16
   Max. Number of Macro iterations      .... Maxiter - #DIIS iter
   Number of Davidson start vectors     ....     2
   Converg. threshold I  (grad. norm)   ....   1.000e-05
   Converg. threshold II (energy diff.) ....   1.000e-08
   Grad. Scal. Fac. for Micro threshold ....   0.100
   Minimum threshold for Micro iter.    ....   0.010
   NR start threshold (gradient norm)   ....   0.001
   Initial trust radius                 ....   0.400
   Minimum AH scaling param. (alpha)    ....   1.000
   Maximum AH scaling param. (alpha)    .... 1000.000
   Orbital update algorithm             .... Taylor
   White noise on init. David. guess    .... on
   Maximum white noise                  ....   0.010
   Quad. conv. algorithm                .... NR
 SOSCF                  CNVSOSCF        .... on
   Start iteration      SOSCFMaxIt      ....   150
   Startup grad/error   SOSCFStart      ....  0.003300
 Level Shifting         CNVShift        .... on
   Level shift para.    LevelShift      ....    0.2500
   Turn off err/grad.   ShiftErr        ....    0.0010
 Zerner damping         CNVZerner       .... off
 Static damping         CNVDamp         .... on
   Fraction old density DampFac         ....    0.7000
   Max. Damping (<1)    DampMax         ....    0.9800
   Min. Damping (>=0)   DampMin         ....    0.0000
   Turn off err/grad.   DampErr         ....    0.1000
 Fernandez-Rico         CNVRico         .... off

SCF Procedure:
 Maximum # iterations   MaxIter         ....   125
 SCF integral mode      SCFMode         .... Direct
   Integral package                     .... SHARK and LIBINT hybrid scheme
 Reset frequency        DirectResetFreq ....    20
 Integral Threshold     Thresh          ....  2.500e-11 Eh
 Primitive CutOff       TCut            ....  2.500e-12 Eh

Convergence Tolerance:
 Convergence Check Mode ConvCheckMode   .... Total+1el-Energy
 Convergence forced     ConvForced      .... 0
 Energy Change          TolE            ....  1.000e-08 Eh
 1-El. energy change                    ....  1.000e-05 Eh
 Orbital Gradient       TolG            ....  1.000e-05
 Orbital Rotation angle TolX            ....  1.000e-05
 DIIS Error             TolErr          ....  5.000e-07


Diagonalization of the overlap matrix:
Smallest eigenvalue                        ... 5.988e-06
Time for diagonalization                   ...    0.116 sec
Threshold for overlap eigenvalues          ... 1.000e-08
Number of eigenvalues below threshold      ... 0
Time for construction of square roots      ...    0.126 sec
Total time needed                          ...    0.246 sec

Time for model grid setup =    0.209 sec

------------------------------
INITIAL GUESS: MODEL POTENTIAL
------------------------------
Loading Hartree-Fock densities                     ... done
Calculating cut-offs                               ... done
Initializing the effective Hamiltonian             ... done
Setting up the integral package (SHARK)            ... done
Starting the Coulomb interaction                   ... done (   0.4 sec)
Reading the grid                                   ... done
Mapping shells                                     ... done
Starting the XC term evaluation                    ... done (   0.1 sec)
  promolecular density results
     # of electrons  =    145.988294495
     EX              =   -115.938863401
     EC              =     -4.894821369
     EX+EC           =   -120.833684770
Transforming the Hamiltonian                       ... done (   0.1 sec)
Diagonalizing the Hamiltonian                      ... done (   0.1 sec)
Back transforming the eigenvectors                 ... done (   0.0 sec)
Now organizing SCF variables                       ... done
                      ------------------
                      INITIAL GUESS DONE (   1.0 sec)
                      ------------------
-------------------
DFT GRID GENERATION
-------------------

General Integration Accuracy     IntAcc      ... 4.388
Radial Grid Type                 RadialGrid  ... OptM3 with GC (2021)
Angular Grid (max. ang.)         AngularGrid ... 4 (Lebedev-302)
Angular grid pruning method      GridPruning ... 4 (adaptive)
Weight generation scheme         WeightScheme... Becke
Basis function cutoff            BFCut       ... 1.0000e-11
Integration weight cutoff        WCut        ... 1.0000e-14
Angular grids for H and He will be reduced by one unit
Partially contracted basis set               ... off
Rotationally invariant grid construction     ... off

Total number of grid points                  ...   185590
Total number of batches                      ...     2922
Average number of points per batch           ...       63
Average number of grid points per atom       ...     4527
Time for grid setup =    0.953 sec

--------------------
COSX GRID GENERATION
--------------------

GRIDX 1
-------
General Integration Accuracy     IntAcc      ... 3.816
Radial Grid Type                 RadialGrid  ... OptM3 with GC (2021)
Angular Grid (max. ang.)         AngularGrid ... 1 (Lebedev-50)
Angular grid pruning method      GridPruning ... 4 (adaptive)
Weight generation scheme         WeightScheme... Becke
Basis function cutoff            BFCut       ... 1.0000e-11
Integration weight cutoff        WCut        ... 1.0000e-14
Angular grids for H and He will be reduced by one unit
Partially contracted basis set               ... on
Rotationally invariant grid construction     ... off

Total number of grid points                  ...    23599
Total number of batches                      ...      390
Average number of points per batch           ...       60
Average number of grid points per atom       ...      576
UseSFitting                                  ... on

GRIDX 2
-------
General Integration Accuracy     IntAcc      ... 4.020
Radial Grid Type                 RadialGrid  ... OptM3 with GC (2021)
Angular Grid (max. ang.)         AngularGrid ... 2 (Lebedev-110)
Angular grid pruning method      GridPruning ... 4 (adaptive)
Weight generation scheme         WeightScheme... Becke
Basis function cutoff            BFCut       ... 1.0000e-11
Integration weight cutoff        WCut        ... 1.0000e-14
Angular grids for H and He will be reduced by one unit
Partially contracted basis set               ... on
Rotationally invariant grid construction     ... off

Total number of grid points                  ...    50155
Total number of batches                      ...      806
Average number of points per batch           ...       62
Average number of grid points per atom       ...     1223
UseSFitting                                  ... on

GRIDX 3
-------
General Integration Accuracy     IntAcc      ... 4.338
Radial Grid Type                 RadialGrid  ... OptM3 with GC (2021)
Angular Grid (max. ang.)         AngularGrid ... 3 (Lebedev-194)
Angular grid pruning method      GridPruning ... 4 (adaptive)
Weight generation scheme         WeightScheme... Becke
Basis function cutoff            BFCut       ... 1.0000e-11
Integration weight cutoff        WCut        ... 1.0000e-14
Angular grids for H and He will be reduced by one unit
Partially contracted basis set               ... on
Rotationally invariant grid construction     ... off

Total number of grid points                  ...   109131
Total number of batches                      ...     1725
Average number of points per batch           ...       63
Average number of grid points per atom       ...     2662
UseSFitting                                  ... on

Time for X-Grid setup             =    9.106 sec


--------------------
CPCM SOLVATION MODEL
--------------------
CPCM parameters:
  Epsilon                                         ...       2.4000
  Refrac                                          ...       1.4970
  Rsolv                                           ...       1.3000
  Surface type                                    ... GAUSSIAN VDW
  Epsilon function type                           ...         CPCM
Radii:
 Radius for C  used is    3.8550 Bohr (=   2.0400 Ang.)
 Radius for N  used is    3.5149 Bohr (=   1.8600 Ang.)
 Radius for O  used is    3.4469 Bohr (=   1.8240 Ang.)
 Radius for H  used is    2.4944 Bohr (=   1.3200 Ang.)
Calculating surface                               ...        done! (  0.0s)
GEPOL surface points                              ...         2111
GEPOL Volume                                      ...    2285.3323
GEPOL Surface-area                                ...    1136.5077
Calculating surface distance matrix               ...        done! (  0.1s)
Performing Cholesky decomposition & store         ...        done! (  0.3s)
Overall time for CPCM initialization              ...                 0.4s
--------------
SCF ITERATIONS
--------------
ITER       Energy         Delta-E        Max-DP      RMS-DP      [F,P]     Damp
               ***  Starting incremental Fock matrix formation  ***
  0   -860.6084019602   0.000000000000 0.13621454  0.00080052  0.2751123 0.7000
  1   -860.8298208410  -0.221418880802 0.11080453  0.00063156  0.1137046 0.7000
                               ***Turning on DIIS***
  2   -860.9263686186  -0.096547777610 0.11291932  0.00103993  0.0409822 0.0000
  3   -861.0695155191  -0.143146900411 0.13064202  0.00053366  0.0593313 0.0000
  4   -861.1028735824  -0.033358063370 0.01936844  0.00015054  0.0109496 0.0000
  5   -861.1042993867  -0.001425804245 0.01108839  0.00007045  0.0120681 0.0000
                      *** Initiating the SOSCF procedure ***
                           *** Shutting down DIIS ***
                      *** Re-Reading the Fockian *** 
                      *** Removing any level shift *** 
ITER      Energy       Delta-E        Grad      Rot      Max-DP    RMS-DP
  6   -861.10455244  -0.0002530488  0.000260  0.000260  0.002911  0.000027
               *** Restarting incremental Fock matrix formation ***
  7   -861.10456610  -0.0000136640  0.000205  0.001078  0.001758  0.000024
  8   -861.10456700  -0.0000009030  0.000177  0.000401  0.000546  0.000007
  9   -861.10456877  -0.0000017630  0.000045  0.000109  0.000525  0.000005
 10   -861.10456872   0.0000000448  0.000039  0.000062  0.000116  0.000001
 11   -861.10456893  -0.0000002093  0.000010  0.000039  0.000106  0.000001
 12   -861.10456892   0.0000000096  0.000013  0.000018  0.000064  0.000000
                  ***Gradient check signals convergence***
              ***Rediagonalizing the Fockian in SOSCF/NRSCF***

               *****************************************************
               *                     SUCCESS                       *
               *           SCF CONVERGED AFTER  13 CYCLES          *
               *****************************************************

Old exchange energy                            =    -29.666791120 Eh
New exchange energy                            =    -29.666783016 Eh
Exchange energy change after final integration =      0.000008103 Eh
Total energy after final integration           =   -861.104560843 Eh
Final COS-X integration done in                =     8.640 sec

----------------
TOTAL SCF ENERGY
----------------

Total Energy       :         -861.10456084 Eh          -23431.84635 eV

Components:
Nuclear Repulsion  :         1638.35143047 Eh           44581.80892 eV
Electronic Energy  :        -2499.45599131 Eh          -68013.65527 eV
One Electron Energy:        -4423.46972629 Eh         -120368.73068 eV
Two Electron Energy:         1924.01373498 Eh           52355.07541 eV
Max COSX asymmetry :            0.00000310 Eh               0.00008 eV
CPCM Dielectric    :           -0.01167754 Eh              -0.31776 eV

Virial components:
Potential Energy   :        -1718.17221869 Eh          -46753.84299 eV
Kinetic Energy     :          857.06765784 Eh           23321.99664 eV
Virial Ratio       :            2.00471013


DFT components:
N(Alpha)           :       73.000068830064 electrons
N(Beta)            :       73.000068830064 electrons
N(Total)           :      146.000137660128 electrons
E(X)               :      -88.722974833214 Eh       
E(C)               :       -4.890500344459 Eh       
E(XC)              :      -93.613475177673 Eh       
DFET-embed. en.    :        0.000000000000 Eh       
CPCM Solvation Model Properties:
Surface-charge          :           -0.03472468
Charge-correction       :           -0.00014964 Eh              -0.00407 eV
Free-energy (cav+disp)  :  This term is not implemented in the current solvation scheme

---------------
SCF CONVERGENCE
---------------

  Last Energy change         ...   -2.5717e-08  Tolerance :   1.0000e-08
  Last MAX-Density change    ...    1.7764e-15  Tolerance :   1.0000e-07
  Last RMS-Density change    ...    1.2695e-17  Tolerance :   5.0000e-09
  Last Orbital Gradient      ...    2.0315e-06  Tolerance :   1.0000e-05
  Last Orbital Rotation      ...    6.1688e-06  Tolerance :   1.0000e-05

             **** THE GBW FILE WAS UPDATED (IM2-neworca/IM2-neworca.gbw) ****
             **** DENSITY IM2-neworca/IM2-neworca.scfp WAS UPDATED ****
             **** ENERGY FILE WAS UPDATED (IM2-neworca/IM2-neworca.en.tmp) ****
             **** THE GBW FILE WAS UPDATED (IM2-neworca/IM2-neworca.gbw) ****
             **** DENSITY IM2-neworca/IM2-neworca.scfp WAS UPDATED ****
----------------
ORBITAL ENERGIES
----------------

  NO   OCC          E(Eh)            E(eV) 
   0   2.0000     -19.157342      -521.2978 
   1   2.0000     -14.422038      -392.4436 
   2   2.0000     -14.420631      -392.4053 
   3   2.0000     -14.409262      -392.0960 
   4   2.0000     -10.307050      -280.4691 
   5   2.0000     -10.284394      -279.8526 
   6   2.0000     -10.267913      -279.4041 
   7   2.0000     -10.252158      -278.9754 
   8   2.0000     -10.251174      -278.9486 
   9   2.0000     -10.245691      -278.7994 
  10   2.0000     -10.243804      -278.7481 
  11   2.0000     -10.239140      -278.6212 
  12   2.0000     -10.233650      -278.4718 
  13   2.0000     -10.232706      -278.4461 
  14   2.0000     -10.232305      -278.4352 
  15   2.0000     -10.232073      -278.4289 
  16   2.0000     -10.230960      -278.3986 
  17   2.0000     -10.222939      -278.1803 
  18   2.0000     -10.193963      -277.3918 
  19   2.0000     -10.181802      -277.0609 
  20   2.0000      -1.059428       -28.8285 
  21   2.0000      -1.053299       -28.6617 
  22   2.0000      -0.969186       -26.3729 
  23   2.0000      -0.946011       -25.7423 
  24   2.0000      -0.884626       -24.0719 
  25   2.0000      -0.826313       -22.4851 
  26   2.0000      -0.797071       -21.6894 
  27   2.0000      -0.779922       -21.2228 
  28   2.0000      -0.775423       -21.1003 
  29   2.0000      -0.769755       -20.9461 
  30   2.0000      -0.721996       -19.6465 
  31   2.0000      -0.706558       -19.2264 
  32   2.0000      -0.687020       -18.6948 
  33   2.0000      -0.650829       -17.7100 
  34   2.0000      -0.636689       -17.3252 
  35   2.0000      -0.631414       -17.1817 
  36   2.0000      -0.619359       -16.8536 
  37   2.0000      -0.577449       -15.7132 
  38   2.0000      -0.570377       -15.5208 
  39   2.0000      -0.535822       -14.5805 
  40   2.0000      -0.522347       -14.2138 
  41   2.0000      -0.512783       -13.9535 
  42   2.0000      -0.495531       -13.4841 
  43   2.0000      -0.494325       -13.4513 
  44   2.0000      -0.487364       -13.2619 
  45   2.0000      -0.472189       -12.8489 
  46   2.0000      -0.465405       -12.6643 
  47   2.0000      -0.458738       -12.4829 
  48   2.0000      -0.457995       -12.4627 
  49   2.0000      -0.452343       -12.3089 
  50   2.0000      -0.448841       -12.2136 
  51   2.0000      -0.443331       -12.0636 
  52   2.0000      -0.437247       -11.8981 
  53   2.0000      -0.426981       -11.6187 
  54   2.0000      -0.413034       -11.2392 
  55   2.0000      -0.406936       -11.0733 
  56   2.0000      -0.402511       -10.9529 
  57   2.0000      -0.397664       -10.8210 
  58   2.0000      -0.396119       -10.7789 
  59   2.0000      -0.389325       -10.5941 
  60   2.0000      -0.383590       -10.4380 
  61   2.0000      -0.373185       -10.1549 
  62   2.0000      -0.367086        -9.9889 
  63   2.0000      -0.359734        -9.7889 
  64   2.0000      -0.357960        -9.7406 
  65   2.0000      -0.335970        -9.1422 
  66   2.0000      -0.290786        -7.9127 
  67   2.0000      -0.281724        -7.6661 
  68   2.0000      -0.280940        -7.6448 
  69   2.0000      -0.272206        -7.4071 
  70   2.0000      -0.256496        -6.9796 
  71   2.0000      -0.251812        -6.8521 
  72   2.0000      -0.158530        -4.3138 
  73   0.0000      -0.017407        -0.4737 
  74   0.0000      -0.015346        -0.4176 
  75   0.0000       0.031370         0.8536 
  76   0.0000       0.038930         1.0593 
  77   0.0000       0.041589         1.1317 
  78   0.0000       0.057769         1.5720 
  79   0.0000       0.066335         1.8051 
  80   0.0000       0.068678         1.8688 
  81   0.0000       0.077648         2.1129 
  82   0.0000       0.082212         2.2371 
  83   0.0000       0.083708         2.2778 
  84   0.0000       0.094092         2.5604 
  85   0.0000       0.098850         2.6898 
  86   0.0000       0.101763         2.7691 
  87   0.0000       0.109055         2.9675 
  88   0.0000       0.109672         2.9843 
  89   0.0000       0.115170         3.1339 
  90   0.0000       0.116628         3.1736 
  91   0.0000       0.124970         3.4006 
  92   0.0000       0.125812         3.4235 
  93   0.0000       0.129987         3.5371 
  94   0.0000       0.138222         3.7612 
  95   0.0000       0.141024         3.8375 
  96   0.0000       0.148585         4.0432 
  97   0.0000       0.153029         4.1641 
  98   0.0000       0.155305         4.2261 
  99   0.0000       0.158719         4.3190 
 100   0.0000       0.163173         4.4402 
 101   0.0000       0.164779         4.4839 
 102   0.0000       0.169767         4.6196 
 103   0.0000       0.174206         4.7404 
 104   0.0000       0.181482         4.9384 
 105   0.0000       0.186547         5.0762 
 106   0.0000       0.193433         5.2636 
 107   0.0000       0.202602         5.5131 
 108   0.0000       0.205899         5.6028 
 109   0.0000       0.211089         5.7440 
 110   0.0000       0.219131         5.9628 
 111   0.0000       0.227581         6.1928 
 112   0.0000       0.230133         6.2622 
 113   0.0000       0.232186         6.3181 
 114   0.0000       0.237019         6.4496 
 115   0.0000       0.240115         6.5339 
 116   0.0000       0.246489         6.7073 
 117   0.0000       0.250916         6.8278 
 118   0.0000       0.258441         7.0325 
 119   0.0000       0.260564         7.0903 
 120   0.0000       0.262937         7.1549 
 121   0.0000       0.273177         7.4335 
 122   0.0000       0.276067         7.5122 
 123   0.0000       0.285982         7.7820 
 124   0.0000       0.287490         7.8230 
 125   0.0000       0.294630         8.0173 
 126   0.0000       0.299626         8.1532 
 127   0.0000       0.304585         8.2882 
 128   0.0000       0.307905         8.3785 
 129   0.0000       0.309610         8.4249 
 130   0.0000       0.315995         8.5986 
 131   0.0000       0.324648         8.8341 
 132   0.0000       0.333726         9.0812 
 133   0.0000       0.342509         9.3201 
 134   0.0000       0.346009         9.4154 
 135   0.0000       0.349309         9.5052 
 136   0.0000       0.356817         9.7095 
 137   0.0000       0.360649         9.8138 
 138   0.0000       0.367246         9.9933 
 139   0.0000       0.371465        10.1081 
 140   0.0000       0.372816        10.1449 
 141   0.0000       0.373400        10.1607 
 142   0.0000       0.383772        10.4430 
 143   0.0000       0.391127        10.6431 
 144   0.0000       0.393512        10.7080 
 145   0.0000       0.400112        10.8876 
 146   0.0000       0.401802        10.9336 
 147   0.0000       0.405248        11.0273 
 148   0.0000       0.413209        11.2440 
 149   0.0000       0.415166        11.2972 
 150   0.0000       0.421492        11.4694 
 151   0.0000       0.430713        11.7203 
 152   0.0000       0.431941        11.7537 
 153   0.0000       0.433485        11.7957 
 154   0.0000       0.435818        11.8592 
 155   0.0000       0.437918        11.9163 
 156   0.0000       0.440976        11.9996 
 157   0.0000       0.443567        12.0701 
 158   0.0000       0.446424        12.1478 
 159   0.0000       0.451971        12.2988 
 160   0.0000       0.458063        12.4645 
 161   0.0000       0.461539        12.5591 
 162   0.0000       0.463253        12.6058 
 163   0.0000       0.467758        12.7284 
 164   0.0000       0.472295        12.8518 
 165   0.0000       0.477568        12.9953 
 166   0.0000       0.478785        13.0284 
 167   0.0000       0.487726        13.2717 
 168   0.0000       0.489118        13.3096 
 169   0.0000       0.493036        13.4162 
 170   0.0000       0.498334        13.5603 
 171   0.0000       0.509318        13.8592 
 172   0.0000       0.511449        13.9172 
 173   0.0000       0.513817        13.9817 
 174   0.0000       0.516473        14.0539 
 175   0.0000       0.524823        14.2812 
 176   0.0000       0.530818        14.4443 
 177   0.0000       0.531832        14.4719 
 178   0.0000       0.535114        14.5612 
 179   0.0000       0.543560        14.7910 
 180   0.0000       0.550244        14.9729 
 181   0.0000       0.555310        15.1107 
 182   0.0000       0.559355        15.2208 
 183   0.0000       0.566413        15.4129 
 184   0.0000       0.570063        15.5122 
 185   0.0000       0.577365        15.7109 
 186   0.0000       0.580902        15.8072 
 187   0.0000       0.592410        16.1203 
 188   0.0000       0.597667        16.2634 
 189   0.0000       0.604876        16.4595 
 190   0.0000       0.609670        16.5900 
 191   0.0000       0.612036        16.6544 
 192   0.0000       0.621638        16.9156 
 193   0.0000       0.632494        17.2110 
 194   0.0000       0.641245        17.4492 
 195   0.0000       0.652830        17.7644 
 196   0.0000       0.656023        17.8513 
 197   0.0000       0.660313        17.9680 
 198   0.0000       0.666747        18.1431 
 199   0.0000       0.674582        18.3563 
 200   0.0000       0.681083        18.5332 
 201   0.0000       0.683053        18.5868 
 202   0.0000       0.687334        18.7033 
 203   0.0000       0.694779        18.9059 
 204   0.0000       0.695275        18.9194 
 205   0.0000       0.705892        19.2083 
 206   0.0000       0.709721        19.3125 
 207   0.0000       0.717074        19.5126 
 208   0.0000       0.723149        19.6779 
 209   0.0000       0.738017        20.0825 
 210   0.0000       0.744551        20.2603 
 211   0.0000       0.752304        20.4712 
 212   0.0000       0.761025        20.7086 
 213   0.0000       0.769221        20.9316 
 214   0.0000       0.770882        20.9768 
 215   0.0000       0.776575        21.1317 
 216   0.0000       0.783882        21.3305 
 217   0.0000       0.789487        21.4830 
 218   0.0000       0.795660        21.6510 
 219   0.0000       0.798052        21.7161 
 220   0.0000       0.810425        22.0528 
 221   0.0000       0.812687        22.1143 
 222   0.0000       0.823020        22.3955 
 223   0.0000       0.828414        22.5423 
 224   0.0000       0.838388        22.8137 
 225   0.0000       0.843088        22.9416 
 226   0.0000       0.855144        23.2697 
 227   0.0000       0.860908        23.4265 
 228   0.0000       0.873209        23.7612 
 229   0.0000       0.877344        23.8737 
 230   0.0000       0.887467        24.1492 
 231   0.0000       0.896872        24.4051 
 232   0.0000       0.907316        24.6893 
 233   0.0000       0.910753        24.7828 
 234   0.0000       0.923482        25.1292 
 235   0.0000       0.930059        25.3082 
 236   0.0000       0.932494        25.3745 
 237   0.0000       0.936686        25.4885 
 238   0.0000       0.960691        26.1417 
 239   0.0000       0.967966        26.3397 
 240   0.0000       0.969274        26.3753 
 241   0.0000       0.985402        26.8141 
 242   0.0000       0.989292        26.9200 
 243   0.0000       0.996900        27.1270 
 244   0.0000       1.001832        27.2612 
 245   0.0000       1.005266        27.3547 
 246   0.0000       1.010521        27.4977 
 247   0.0000       1.022002        27.8101 
 248   0.0000       1.032096        28.0848 
 249   0.0000       1.041306        28.3354 
 250   0.0000       1.046433        28.4749 
 251   0.0000       1.060734        28.8640 
 252   0.0000       1.065096        28.9827 
 253   0.0000       1.077144        29.3106 
 254   0.0000       1.082908        29.4674 
 255   0.0000       1.089396        29.6440 
 256   0.0000       1.097419        29.8623 
 257   0.0000       1.104350        30.0509 
 258   0.0000       1.110805        30.2266 
 259   0.0000       1.116120        30.3712 
 260   0.0000       1.124063        30.5873 
 261   0.0000       1.129396        30.7324 
 262   0.0000       1.139439        31.0057 
 263   0.0000       1.143603        31.1190 
 264   0.0000       1.153478        31.3877 
 265   0.0000       1.156111        31.4594 
 266   0.0000       1.168063        31.7846 
 267   0.0000       1.170345        31.8467 
 268   0.0000       1.180949        32.1353 
 269   0.0000       1.194581        32.5062 
 270   0.0000       1.202948        32.7339 
 271   0.0000       1.213617        33.0242 
 272   0.0000       1.234503        33.5925 
 273   0.0000       1.238180        33.6926 
 274   0.0000       1.248147        33.9638 
 275   0.0000       1.254820        34.1454 
 276   0.0000       1.257481        34.2178 
 277   0.0000       1.260577        34.3021 
 278   0.0000       1.281634        34.8750 
 279   0.0000       1.290520        35.1168 
 280   0.0000       1.298141        35.3242 
 281   0.0000       1.300461        35.3873 
 282   0.0000       1.309361        35.6295 
 283   0.0000       1.317623        35.8543 
 284   0.0000       1.324549        36.0428 
 285   0.0000       1.341492        36.5038 
 286   0.0000       1.351108        36.7655 
 287   0.0000       1.371386        37.3173 
 288   0.0000       1.375466        37.4283 
 289   0.0000       1.387910        37.7669 
 290   0.0000       1.389272        37.8040 
 291   0.0000       1.400515        38.1099 
 292   0.0000       1.414186        38.4820 
 293   0.0000       1.426732        38.8234 
 294   0.0000       1.429651        38.9028 
 295   0.0000       1.432482        38.9798 
 296   0.0000       1.448056        39.4036 
 297   0.0000       1.456834        39.6425 
 298   0.0000       1.468043        39.9475 
 299   0.0000       1.471517        40.0420 
 300   0.0000       1.476055        40.1655 
 301   0.0000       1.492404        40.6104 
 302   0.0000       1.493222        40.6326 
 303   0.0000       1.499888        40.8140 
 304   0.0000       1.514638        41.2154 
 305   0.0000       1.516094        41.2550 
 306   0.0000       1.526354        41.5342 
 307   0.0000       1.530840        41.6563 
 308   0.0000       1.536880        41.8206 
 309   0.0000       1.544409        42.0255 
 310   0.0000       1.548395        42.1340 
 311   0.0000       1.557621        42.3850 
 312   0.0000       1.570114        42.7250 
 313   0.0000       1.571170        42.7537 
 314   0.0000       1.576179        42.8900 
 315   0.0000       1.582166        43.0529 
 316   0.0000       1.588625        43.2287 
 317   0.0000       1.592697        43.3395 
 318   0.0000       1.595713        43.4215 
 319   0.0000       1.600230        43.5445 
 320   0.0000       1.601046        43.5667 
 321   0.0000       1.616763        43.9944 
 322   0.0000       1.620399        44.0933 
 323   0.0000       1.629345        44.3367 
 324   0.0000       1.633867        44.4598 
 325   0.0000       1.643587        44.7243 
 326   0.0000       1.644595        44.7517 
 327   0.0000       1.648844        44.8673 
 328   0.0000       1.655141        45.0387 
 329   0.0000       1.664598        45.2960 
 330   0.0000       1.672702        45.5165 
 331   0.0000       1.675518        45.5932 
 332   0.0000       1.679570        45.7034 
 333   0.0000       1.682378        45.7798 
 334   0.0000       1.689479        45.9731 
 335   0.0000       1.707061        46.4515 
 336   0.0000       1.711640        46.5761 
 337   0.0000       1.719170        46.7810 
 338   0.0000       1.722662        46.8760 
 339   0.0000       1.723068        46.8871 
 340   0.0000       1.734307        47.1929 
 341   0.0000       1.745827        47.5064 
 342   0.0000       1.755929        47.7812 
 343   0.0000       1.770067        48.1660 
 344   0.0000       1.774291        48.2809 
 345   0.0000       1.787487        48.6400 
 346   0.0000       1.792654        48.7806 
 347   0.0000       1.801063        49.0094 
 348   0.0000       1.810475        49.2655 
 349   0.0000       1.824368        49.6436 
 350   0.0000       1.839539        50.0564 
 351   0.0000       1.846337        50.2414 
 352   0.0000       1.847058        50.2610 
 353   0.0000       1.855394        50.4878 
[...]
 10:     75.31   0.000368    1.86  0.001526  (-0.030425  0.011147  0.021823)
 11:     88.01   0.000119    0.60  0.000421  ( 0.008487  0.016263 -0.009215)
 12:     94.46   0.000122    0.61  0.000402  (-0.017728 -0.000636  0.009324)
 13:    106.98   0.000866    4.38  0.002527  (-0.045272 -0.017798  0.012686)
 14:    123.15   0.000623    3.15  0.001578  (-0.028374 -0.024325  0.013477)
 15:    141.10   0.000274    1.38  0.000605  (-0.020836  0.012126  0.004916)
 16:    155.51   0.000275    1.39  0.000552  ( 0.014720  0.012639 -0.013240)
 17:    183.49   0.000263    1.33  0.000447  ( 0.006129 -0.015094 -0.013495)
 18:    190.88   0.000415    2.10  0.000678  ( 0.017110  0.016797 -0.010151)
 19:    214.47   0.000710    3.59  0.001032  (-0.007797  0.031157  0.000955)
 20:    222.63   0.000326    1.65  0.000457  ( 0.005413  0.019845  0.005777)
 21:    229.38   0.000032    0.16  0.000044  (-0.003280 -0.005267  0.002367)
 22:    240.00   0.000325    1.64  0.000422  (-0.006387 -0.008886  0.017388)
 23:    301.72   0.000220    1.11  0.000227  (-0.007537  0.009646 -0.008808)
 24:    309.23   0.000429    2.17  0.000433  ( 0.013159  0.015494  0.004461)
 25:    321.23   0.000828    4.19  0.000805  ( 0.024037  0.001921  0.014945)
 26:    348.98   0.001080    5.46  0.000966  ( 0.025213  0.016460  0.007708)
 27:    370.31   0.000266    1.35  0.000225  ( 0.006755  0.003339  0.012952)
 28:    420.68   0.003296   16.66  0.002445  ( 0.040492  0.027966  0.004815)
 29:    422.55   0.000107    0.54  0.000079  ( 0.008360  0.002941  0.000440)
 30:    439.32   0.000918    4.64  0.000652  ( 0.003445 -0.020153 -0.015292)
 31:    474.84   0.000796    4.02  0.000523  (-0.004625 -0.020648 -0.008693)
 32:    527.58   0.000837    4.23  0.000495  (-0.015390 -0.001528  0.015995)
 33:    578.69   0.000468    2.37  0.000252  ( 0.011907  0.002255  0.010277)
 34:    582.21   0.006730   34.01  0.003607  ( 0.044108  0.036010  0.019099)
 35:    594.02   0.002656   13.42  0.001395  ( 0.024535 -0.018948  0.020836)
 36:    628.68   0.000018    0.09  0.000009  (-0.002051  0.002077  0.000487)
 37:    636.83   0.000789    3.99  0.000387  ( 0.014974  0.011120  0.006218)
 38:    649.10   0.035263  178.20  0.016953  (-0.088116 -0.093704 -0.020201)
 39:    668.96   0.003433   17.35  0.001602  ( 0.029481  0.026947 -0.002497)
 40:    702.23   0.002848   14.39  0.001266  (-0.011121 -0.033701 -0.002498)
 41:    718.49   0.013552   68.49  0.005886  ( 0.062617  0.040886  0.017131)
 42:    728.78   0.002170   10.96  0.000929  ( 0.020886 -0.000089 -0.022198)
 43:    755.84   0.000076    0.38  0.000031  ( 0.004707 -0.001317  0.002725)
 44:    779.14   0.000530    2.68  0.000212  ( 0.002842  0.002103  0.014129)
 45:    786.62   0.000119    0.60  0.000047  (-0.000648  0.000012 -0.006837)
 46:    800.63   0.004389   22.18  0.001711  (-0.028937 -0.028994 -0.005718)
 47:    837.90   0.003309   16.72  0.001233  (-0.027732  0.004609  0.021029)
 48:    859.80   0.000056    0.28  0.000020  (-0.002759  0.003418  0.001016)
 49:    909.44   0.000189    0.95  0.000065  (-0.004164  0.001850  0.006636)
 50:    945.13   0.000336    1.70  0.000111  (-0.008008 -0.005422 -0.004174)
 51:    955.65   0.002118   10.70  0.000692  ( 0.004619 -0.022907  0.012060)
 52:    992.16   0.000050    0.25  0.000016  (-0.000230  0.000819 -0.003865)
 53:   1011.63   0.000085    0.43  0.000026  (-0.001785 -0.000839 -0.004726)
 54:   1015.39   0.002537   12.82  0.000780  ( 0.010403 -0.008063 -0.024628)
 55:   1025.46   0.000491    2.48  0.000149  ( 0.004844  0.008638 -0.007157)
 56:   1050.01   0.000470    2.38  0.000140  ( 0.010654  0.003631 -0.003618)
 57:   1059.67   0.006518   32.94  0.001919  ( 0.007491  0.037659 -0.021098)
 58:   1062.09   0.007599   38.40  0.002233  ( 0.033345  0.001304 -0.033453)
 59:   1072.68   0.006751   34.12  0.001964  ( 0.035366 -0.000375  0.026702)
 60:   1099.46   0.002253   11.39  0.000640  ( 0.014096 -0.012624 -0.016777)
 61:   1101.84   0.002328   11.76  0.000659  ( 0.020065  0.004024 -0.015506)
 62:   1109.28   0.002769   13.99  0.000779  (-0.017189  0.019109 -0.010877)
 63:   1125.22   0.012701   64.19  0.003522  ( 0.036859  0.045735 -0.008499)
 64:   1143.35   0.000323    1.63  0.000088  (-0.005152  0.004744  0.006250)
 65:   1145.29   0.000980    4.95  0.000267  (-0.001530  0.015669 -0.004370)
 66:   1146.05   0.000954    4.82  0.000260  ( 0.009441  0.002749 -0.012774)
 67:   1147.30   0.008009   40.47  0.002178  ( 0.026774  0.026464 -0.027590)
 68:   1160.45   0.002497   12.62  0.000671  ( 0.005091  0.013517 -0.021512)
 69:   1173.01   0.000036    0.18  0.000010  (-0.001892  0.001550  0.001891)
 70:   1186.29   0.000433    2.19  0.000114  ( 0.010271  0.002914 -0.000153)
 71:   1259.34   0.008912   45.04  0.002209  ( 0.022984 -0.011126 -0.039452)
 72:   1273.07   0.001931    9.76  0.000473  (-0.006813 -0.006522 -0.019607)
 73:   1291.22   0.001733    8.76  0.000419  ( 0.017581  0.000848  0.010442)
 74:   1316.55   0.013558   68.52  0.003214  ( 0.040149  0.039502  0.006420)
 75:   1329.00   0.000262    1.32  0.000061  (-0.000084 -0.006298 -0.004663)
 76:   1348.12   0.003191   16.13  0.000739  (-0.013986  0.006813 -0.022287)
 77:   1351.73   0.003318   16.77  0.000766  ( 0.021788  0.004477  0.016467)
 78:   1361.91   0.000151    0.76  0.000035  (-0.001691  0.003425  0.004480)
 79:   1384.66   0.001950    9.85  0.000439  ( 0.018943  0.008961  0.000584)
 80:   1389.11   0.022707  114.75  0.005101  ( 0.057832 -0.041636  0.004796)
 81:   1410.83   0.016443   83.10  0.003637  ( 0.037477  0.045282 -0.013492)
 82:   1418.51   0.001266    6.40  0.000278  (-0.007023 -0.005421  0.014134)
 83:   1434.29   0.028366  143.35  0.006172  (-0.069995 -0.035064 -0.006548)
 84:   1447.08   0.006881   34.77  0.001484  ( 0.013150  0.008070 -0.035296)
 85:   1449.57   0.000331    1.67  0.000071  (-0.006147  0.003810 -0.004362)
 86:   1460.46   0.003289   16.62  0.000703  (-0.011085 -0.020590 -0.012489)
 87:   1465.53   0.001915    9.68  0.000408  ( 0.006109 -0.002308 -0.019107)
 88:   1474.85   0.001743    8.81  0.000369  ( 0.004889 -0.012117 -0.014077)
 89:   1477.52   0.005095   25.75  0.001076  ( 0.031049  0.000756  0.010553)
 90:   1479.56   0.002581   13.04  0.000544  (-0.002025 -0.019120 -0.013217)
 91:   1486.99   0.001132    5.72  0.000238  ( 0.007685 -0.011247 -0.007214)
 92:   1500.24   0.005986   30.25  0.001245  (-0.019313 -0.026526 -0.012981)
 93:   1501.65   0.018355   92.76  0.003814  (-0.041848  0.004606  0.045187)
 94:   1509.74   0.001368    6.91  0.000283  ( 0.000627  0.015721 -0.005940)
 95:   1523.95   0.018101   91.47  0.003707  (-0.004018 -0.006203  0.060431)
 96:   1541.05   0.016782   84.81  0.003398  ( 0.003932  0.035536 -0.046045)
 97:   1646.98   0.011868   59.98  0.002249  (-0.032045  0.031439 -0.015277)
 98:   1648.08   0.001353    6.84  0.000256  ( 0.010867 -0.008389 -0.008225)
 99:   1662.92   0.013213   66.77  0.002480  ( 0.004132 -0.031527  0.038323)
100:   1694.19   0.156381  790.29  0.028805  ( 0.113371 -0.108903  0.063968)
101:   1720.41   0.100264  506.69  0.018187  ( 0.005895 -0.095337  0.095199)
102:   3024.05   0.014943   75.51  0.001542  (-0.013044  0.004346  0.036783)
103:   3037.35   0.013233   66.87  0.001360  ( 0.023513  0.023103  0.016520)
104:   3040.70   0.010411   52.61  0.001068  (-0.007508  0.031387  0.005190)
105:   3044.80   0.010421   52.66  0.001068  ( 0.003583 -0.015919 -0.028316)
106:   3074.70   0.007459   37.70  0.000757  ( 0.019850  0.018987  0.001592)
107:   3101.66   0.005211   26.33  0.000524  (-0.018351  0.007321  0.011574)
108:   3111.23   0.001972    9.96  0.000198  (-0.009621 -0.010155  0.001443)
109:   3114.70   0.009348   47.24  0.000937  ( 0.029599 -0.007673  0.001258)
110:   3130.99   0.000822    4.16  0.000082  ( 0.006657  0.002384  0.005654)
111:   3144.49   0.004541   22.95  0.000451  ( 0.004818 -0.008545  0.018825)
112:   3150.29   0.003089   15.61  0.000306  ( 0.009332  0.002970 -0.014495)
113:   3154.49   0.001890    9.55  0.000187  (-0.010106  0.009048  0.001730)
114:   3174.88   0.000434    2.20  0.000043  (-0.004692  0.001034 -0.004429)
115:   3188.52   0.000065    0.33  0.000006  ( 0.000162  0.001507 -0.002012)
116:   3196.30   0.000694    3.51  0.000068  (-0.003214  0.001399  0.007450)
117:   3200.19   0.003031   15.32  0.000296  (-0.014174  0.004156  0.008800)
118:   3204.67   0.002660   13.44  0.000259  ( 0.007512 -0.013447  0.004662)
119:   3212.76   0.002496   12.61  0.000242  (-0.005722 -0.001781  0.014371)
120:   3219.50   0.000441    2.23  0.000043  ( 0.003247 -0.005675 -0.000003)
121:   3286.30   0.001602    8.10  0.000152  ( 0.004036 -0.002343 -0.011417)
122:   3307.45   0.000050    0.25  0.000005  (-0.001025  0.001281 -0.001420)

* The epsilon (eps) is given for a Dirac delta lineshape.
** The dipole moment derivative (T) already includes vibrational overlap.

The first frequency considered to be a vibration is 6
The total number of vibrations considered is 117


--------------------------
THERMOCHEMISTRY AT 433.15K
--------------------------

Temperature         ... 433.15 K
Pressure            ... 1.00 atm
Total Mass          ... 271.36 AMU

Throughout the following assumptions are being made:
  (1) The electronic state is orbitally nondegenerate
  (2) There are no thermally accessible electronically excited states
  (3) Hindered rotations indicated by low frequency modes are not
      treated as such but are treated as vibrations and this may
      cause some error
  (4) All equations used are the standard statistical mechanics
      equations for an ideal gas
  (5) All vibrations are strictly harmonic

freq.      24.79  E(vib)   ...       0.83 
freq.      37.14  E(vib)   ...       0.81 
freq.      56.52  E(vib)   ...       0.78 
freq.      59.86  E(vib)   ...       0.78 
freq.      75.31  E(vib)   ...       0.76 
freq.      88.01  E(vib)   ...       0.74 
freq.      94.46  E(vib)   ...       0.73 
freq.     106.98  E(vib)   ...       0.72 
freq.     123.15  E(vib)   ...       0.70 
freq.     141.10  E(vib)   ...       0.67 
freq.     155.51  E(vib)   ...       0.66 
freq.     183.49  E(vib)   ...       0.62 
freq.     190.88  E(vib)   ...       0.62 
freq.     214.47  E(vib)   ...       0.59 
freq.     222.63  E(vib)   ...       0.58 
freq.     229.38  E(vib)   ...       0.57 
freq.     240.00  E(vib)   ...       0.56 
freq.     301.72  E(vib)   ...       0.50 
freq.     309.23  E(vib)   ...       0.49 
freq.     321.23  E(vib)   ...       0.48 
freq.     348.98  E(vib)   ...       0.46 
freq.     370.31  E(vib)   ...       0.44 
freq.     420.68  E(vib)   ...       0.40 
freq.     422.55  E(vib)   ...       0.39 
freq.     439.32  E(vib)   ...       0.38 
freq.     474.84  E(vib)   ...       0.35 
freq.     527.58  E(vib)   ...       0.32 
freq.     578.69  E(vib)   ...       0.28 
freq.     582.21  E(vib)   ...       0.28 
freq.     594.02  E(vib)   ...       0.27 
freq.     628.68  E(vib)   ...       0.25 
freq.     636.83  E(vib)   ...       0.25 
freq.     649.10  E(vib)   ...       0.24 
freq.     668.96  E(vib)   ...       0.23 
freq.     702.23  E(vib)   ...       0.22 
freq.     718.49  E(vib)   ...       0.21 
freq.     728.78  E(vib)   ...       0.20 
freq.     755.84  E(vib)   ...       0.19 
freq.     779.14  E(vib)   ...       0.18 
freq.     786.62  E(vib)   ...       0.18 
freq.     800.63  E(vib)   ...       0.17 
freq.     837.90  E(vib)   ...       0.16 
freq.     859.80  E(vib)   ...       0.15 
freq.     909.44  E(vib)   ...       0.13 
freq.     945.13  E(vib)   ...       0.12 
freq.     955.65  E(vib)   ...       0.12 
freq.     992.16  E(vib)   ...       0.11 
freq.    1011.63  E(vib)   ...       0.10 
freq.    1015.39  E(vib)   ...       0.10 
freq.    1025.46  E(vib)   ...       0.10 
freq.    1050.01  E(vib)   ...       0.09 
freq.    1059.67  E(vib)   ...       0.09 
freq.    1062.09  E(vib)   ...       0.09 
freq.    1072.68  E(vib)   ...       0.09 
freq.    1099.46  E(vib)   ...       0.08 
freq.    1101.84  E(vib)   ...       0.08 
freq.    1109.28  E(vib)   ...       0.08 
freq.    1125.22  E(vib)   ...       0.08 
freq.    1143.35  E(vib)   ...       0.07 
freq.    1145.29  E(vib)   ...       0.07 
freq.    1146.05  E(vib)   ...       0.07 
freq.    1147.30  E(vib)   ...       0.07 
freq.    1160.45  E(vib)   ...       0.07 
freq.    1173.01  E(vib)   ...       0.07 
freq.    1186.29  E(vib)   ...       0.07 
freq.    1259.34  E(vib)   ...       0.06 
freq.    1273.07  E(vib)   ...       0.05 
freq.    1291.22  E(vib)   ...       0.05 
freq.    1316.55  E(vib)   ...       0.05 
freq.    1329.00  E(vib)   ...       0.05 
freq.    1348.12  E(vib)   ...       0.04 
freq.    1351.73  E(vib)   ...       0.04 
freq.    1361.91  E(vib)   ...       0.04 
freq.    1384.66  E(vib)   ...       0.04 
freq.    1389.11  E(vib)   ...       0.04 
freq.    1410.83  E(vib)   ...       0.04 
freq.    1418.51  E(vib)   ...       0.04 
freq.    1434.29  E(vib)   ...       0.04 
freq.    1447.08  E(vib)   ...       0.03 
freq.    1449.57  E(vib)   ...       0.03 
freq.    1460.46  E(vib)   ...       0.03 
freq.    1465.53  E(vib)   ...       0.03 
freq.    1474.85  E(vib)   ...       0.03 
freq.    1477.52  E(vib)   ...       0.03 
freq.    1479.56  E(vib)   ...       0.03 
freq.    1486.99  E(vib)   ...       0.03 
freq.    1500.24  E(vib)   ...       0.03 
freq.    1501.65  E(vib)   ...       0.03 
freq.    1509.74  E(vib)   ...       0.03 
freq.    1523.95  E(vib)   ...       0.03 
freq.    1541.05  E(vib)   ...       0.03 
freq.    1646.98  E(vib)   ...       0.02 
freq.    1648.08  E(vib)   ...       0.02 
freq.    1662.92  E(vib)   ...       0.02 
freq.    1694.19  E(vib)   ...       0.02 
freq.    1720.41  E(vib)   ...       0.02 
freq.    3024.05  E(vib)   ...       0.00 
freq.    3037.35  E(vib)   ...       0.00 
freq.    3040.70  E(vib)   ...       0.00 
freq.    3044.80  E(vib)   ...       0.00 
freq.    3074.70  E(vib)   ...       0.00 
freq.    3101.66  E(vib)   ...       0.00 
freq.    3111.23  E(vib)   ...       0.00 
freq.    3114.70  E(vib)   ...       0.00 
freq.    3130.99  E(vib)   ...       0.00 
freq.    3144.49  E(vib)   ...       0.00 
freq.    3150.29  E(vib)   ...       0.00 
freq.    3154.49  E(vib)   ...       0.00 
freq.    3174.88  E(vib)   ...       0.00 
freq.    3188.52  E(vib)   ...       0.00 
freq.    3196.30  E(vib)   ...       0.00 
freq.    3200.19  E(vib)   ...       0.00 
freq.    3204.67  E(vib)   ...       0.00 
freq.    3212.76  E(vib)   ...       0.00 
freq.    3219.50  E(vib)   ...       0.00 
freq.    3286.30  E(vib)   ...       0.00 
freq.    3307.45  E(vib)   ...       0.00 

------------
INNER ENERGY
------------

The inner energy is: U= E(el) + E(ZPE) + E(vib) + E(rot) + E(trans)
    E(el)   - is the total energy from the electronic structure calculation
              = E(kin-el) + E(nuc-el) + E(el-el) + E(nuc-nuc)
    E(ZPE)  - the the zero temperature vibrational energy from the frequency calculation
    E(vib)  - the the finite temperature correction to E(ZPE) due to population
              of excited vibrational states
    E(rot)  - is the rotational thermal energy
    E(trans)- is the translational thermal energy

Summary of contributions to the inner energy U:
Electronic energy                ...   -861.15437258 Eh
Zero point energy                ...      0.34742974 Eh     218.01 kcal/mol
Thermal vibrational correction   ...      0.03581608 Eh      22.47 kcal/mol
Thermal rotational correction    ...      0.00205755 Eh       1.29 kcal/mol
Thermal translational correction ...      0.00205755 Eh       1.29 kcal/mol
-----------------------------------------------------------------------
Total thermal energy                   -860.76701165 Eh


Summary of corrections to the electronic energy:
(perhaps to be used in another calculation)
Total thermal correction                  0.03993118 Eh      25.06 kcal/mol
Non-thermal (ZPE) correction              0.34742974 Eh     218.01 kcal/mol
-----------------------------------------------------------------------
Total correction                          0.38736092 Eh     243.07 kcal/mol


--------
ENTHALPY
--------

The enthalpy is H = U + kB*T
                kB is Boltzmann's constant
Total free energy                 ...   -860.76701165 Eh 
Thermal Enthalpy correction       ...      0.00137174 Eh       0.86 kcal/mol
-----------------------------------------------------------------------
Total Enthalpy                    ...   -860.76563991 Eh


Note: Only C1 symmetry has been detected, increase convergence thresholds 
      if your molecule has a higher symmetry. Symmetry factor of 1.0 is   
      used for the rotational entropy correction. 
 

Note: Rotational entropy computed according to Herzberg 
Infrared and Raman Spectra, Chapter V,1, Van Nostrand Reinhold, 1945 
Point Group:  C1, Symmetry Number:   1  
Rotational constants in cm-1:     0.014418     0.011069     0.008294 

Vibrational entropy computed according to the QRRHO of S. Grimme
Chem.Eur.J. 2012 18 9955


-------
ENTROPY
-------

The entropy contributions are T*S = T*(S(el)+S(vib)+S(rot)+S(trans))
     S(el)   - electronic entropy
     S(vib)  - vibrational entropy
     S(rot)  - rotational entropy
     S(trans)- translational entropy
The entropies will be listed as multiplied by the temperature to get
units of energy

Electronic entropy                ...      0.00000000 Eh      0.00 kcal/mol
Vibrational entropy               ...      0.06533887 Eh     41.00 kcal/mol
Rotational entropy                ...      0.02386876 Eh     14.98 kcal/mol
Translational entropy             ...      0.03075081 Eh     19.30 kcal/mol
-----------------------------------------------------------------------
Final entropy term                ...      0.11995844 Eh     75.27 kcal/mol

In case the symmetry of your molecule has not been determined correctly
or in case you have a reason to use a different symmetry number we print 
out the resulting rotational entropy values for sn=1,12 :
 --------------------------------------------------------
|  sn= 1 | S(rot)=       0.02386876 Eh     14.98 kcal/mol|
|  sn= 2 | S(rot)=       0.02291797 Eh     14.38 kcal/mol|
|  sn= 3 | S(rot)=       0.02236180 Eh     14.03 kcal/mol|
|  sn= 4 | S(rot)=       0.02196719 Eh     13.78 kcal/mol|
|  sn= 5 | S(rot)=       0.02166110 Eh     13.59 kcal/mol|
|  sn= 6 | S(rot)=       0.02141101 Eh     13.44 kcal/mol|
|  sn= 7 | S(rot)=       0.02119956 Eh     13.30 kcal/mol|
|  sn= 8 | S(rot)=       0.02101640 Eh     13.19 kcal/mol|
|  sn= 9 | S(rot)=       0.02085483 Eh     13.09 kcal/mol|
|  sn=10 | S(rot)=       0.02071031 Eh     13.00 kcal/mol|
|  sn=11 | S(rot)=       0.02057957 Eh     12.91 kcal/mol|
|  sn=12 | S(rot)=       0.02046022 Eh     12.84 kcal/mol|
 --------------------------------------------------------


-------------------
GIBBS FREE ENERGY
-------------------

The Gibbs free energy is G = H - T*S

Total enthalpy                    ...   -860.76563991 Eh 
Total entropy correction          ...     -0.11995844 Eh    -75.27 kcal/mol
-----------------------------------------------------------------------
Final Gibbs free energy         ...   -860.88559836 Eh

For completeness - the Gibbs free energy minus the electronic energy
G-E(el)                           ...      0.26877422 Eh    168.66 kcal/mol


Timings for individual modules:

Sum of individual times         ...     1719.134 sec (=  28.652 min)
GTO integral calculation        ...        3.813 sec (=   0.064 min)   0.2 %
SCF iterations                  ...      149.226 sec (=   2.487 min)   8.7 %
SCF Gradient evaluation         ...       20.836 sec (=   0.347 min)   1.2 %
Geometry relaxation             ...        0.264 sec (=   0.004 min)   0.0 %
Analytical frequency calculation...     1544.996 sec (=  25.750 min)  89.9 %
                             ****ORCA TERMINATED NORMALLY****
TOTAL RUN TIME: 0 days 0 hours 28 minutes 51 seconds 444 msec
