
                                 *****************
                                 * O   R   C   A *
                                 *****************

                                            #,                                       
                                            ###                                      
                                            ####                                     
                                            #####                                    
                                            ######                                   
                                           ########,                                 
                                     ,,################,,,,,                         
                               ,,#################################,,                 
                          ,,##########################################,,             
                       ,#########################################, ''#####,          
                    ,#############################################,,   '####,        
                  ,##################################################,,,,####,       
                ,###########''''           ''''###############################       
              ,#####''   ,,,,##########,,,,          '''####'''          '####       
            ,##' ,,,,###########################,,,                        '##       
           ' ,,###''''                  '''############,,,                           
         ,,##''                                '''############,,,,        ,,,,,,###''
      ,#''                                            '''#######################'''  
     '                                                          ''''####''''         
             ,#######,   #######,   ,#######,      ##                                
            ,#'     '#,  ##    ##  ,#'     '#,    #''#        ######   ,####,        
            ##       ##  ##   ,#'  ##            #'  '#       #        #'  '#        
            ##       ##  #######   ##           ,######,      #####,   #    #        
            '#,     ,#'  ##    ##  '#,     ,#' ,#      #,         ##   #,  ,#        
             '#######'   ##     ##  '#######'  #'      '#     #####' # '####'        



                  #######################################################
                  #                        -***-                        #
                  #          Department of theory and spectroscopy      #
                  #    Directorship and core code : Frank Neese         #
                  #        Max Planck Institute fuer Kohlenforschung    #
                  #                Kaiser Wilhelm Platz 1               #
                  #                 D-45470 Muelheim/Ruhr               #
                  #                      Germany                        #
                  #                                                     #
                  #                  All rights reserved                #
                  #                        -***-                        #
                  #######################################################


                         Program Version 5.0.4 -  RELEASE  -


 With contributions from (in alphabetic order):
   Daniel Aravena         : Magnetic Suceptibility
   Michael Atanasov       : Ab Initio Ligand Field Theory (pilot matlab implementation)
   Alexander A. Auer      : GIAO ZORA, VPT2 properties, NMR spectrum
   Ute Becker             : Parallelization
   Giovanni Bistoni       : ED, misc. LED, open-shell LED, HFLD
   Martin Brehm           : Molecular dynamics
   Dmytro Bykov           : SCF Hessian
   Vijay G. Chilkuri      : MRCI spin determinant printing, contributions to CSF-ICE
   Dipayan Datta          : RHF DLPNO-CCSD density
   Achintya Kumar Dutta   : EOM-CC, STEOM-CC
   Dmitry Ganyushin       : Spin-Orbit,Spin-Spin,Magnetic field MRCI
   Miquel Garcia          : C-PCM and meta-GGA Hessian, CC/C-PCM, Gaussian charge scheme
   Yang Guo               : DLPNO-NEVPT2, F12-NEVPT2, CIM, IAO-localization
   Andreas Hansen         : Spin unrestricted coupled pair/coupled cluster methods
   Benjamin Helmich-Paris : MC-RPA, TRAH-SCF, COSX integrals
   Lee Huntington         : MR-EOM, pCC
   Robert Izsak           : Overlap fitted RIJCOSX, COSX-SCS-MP3, EOM
   Marcus Kettner         : VPT2
   Christian Kollmar      : KDIIS, OOCD, Brueckner-CCSD(T), CCSD density, CASPT2, CASPT2-K
   Simone Kossmann        : Meta GGA functionals, TD-DFT gradient, OOMP2, MP2 Hessian
   Martin Krupicka        : Initial AUTO-CI
   Lucas Lang             : DCDCAS
   Marvin Lechner         : AUTO-CI (C++ implementation), FIC-MRCC
   Dagmar Lenk            : GEPOL surface, SMD
   Dimitrios Liakos       : Extrapolation schemes; Compound Job, initial MDCI parallelization
   Dimitrios Manganas     : Further ROCIS development; embedding schemes
   Dimitrios Pantazis     : SARC Basis sets
   Anastasios Papadopoulos: AUTO-CI, single reference methods and gradients
   Taras Petrenko         : DFT Hessian,TD-DFT gradient, ASA, ECA, R-Raman, ABS, FL, XAS/XES, NRVS
   Peter Pinski           : DLPNO-MP2, DLPNO-MP2 Gradient
   Christoph Reimann      : Effective Core Potentials
   Marius Retegan         : Local ZFS, SOC
   Christoph Riplinger    : Optimizer, TS searches, QM/MM, DLPNO-CCSD(T), (RO)-DLPNO pert. Triples
   Tobias Risthaus        : Range-separated hybrids, TD-DFT gradient, RPA, STAB
   Michael Roemelt        : Original ROCIS implementation
   Masaaki Saitow         : Open-shell DLPNO-CCSD energy and density
   Barbara Sandhoefer     : DKH picture change effects
   Avijit Sen             : IP-ROCIS
   Kantharuban Sivalingam : CASSCF convergence, NEVPT2, FIC-MRCI
   Bernardo de Souza      : ESD, SOC TD-DFT
   Georgi Stoychev        : AutoAux, RI-MP2 NMR, DLPNO-MP2 response
   Willem Van den Heuvel  : Paramagnetic NMR
   Boris Wezisla          : Elementary symmetry handling
   Frank Wennmohs         : Technical directorship


 We gratefully acknowledge several colleagues who have allowed us to
 interface, adapt or use parts of their codes:
   Stefan Grimme, W. Hujo, H. Kruse, P. Pracht,  : VdW corrections, initial TS optimization,
                  C. Bannwarth, S. Ehlert          DFT functionals, gCP, sTDA/sTD-DF
   Ed Valeev, F. Pavosevic, A. Kumar             : LibInt (2-el integral package), F12 methods
   Garnet Chan, S. Sharma, J. Yang, R. Olivares  : DMRG
   Ulf Ekstrom                                   : XCFun DFT Library
   Mihaly Kallay                                 : mrcc  (arbitrary order and MRCC methods)
   Jiri Pittner, Ondrej Demel                    : Mk-CCSD
   Frank Weinhold                                : gennbo (NPA and NBO analysis)
   Christopher J. Cramer and Donald G. Truhlar   : smd solvation model
   Lars Goerigk                                  : TD-DFT with DH, B97 family of functionals
   V. Asgeirsson, H. Jonsson                     : NEB implementation
   FAccTs GmbH                                   : IRC, NEB, NEB-TS, DLPNO-Multilevel, CI-OPT
                                                   MM, QMMM, 2- and 3-layer-ONIOM, Crystal-QMMM,
                                                   LR-CPCM, SF, NACMEs, symmetry and pop. for TD-DFT,
                                                   nearIR, NL-DFT gradient (VV10), updates on ESD,
                                                   ML-optimized integration grids
   S Lehtola, MJT Oliveira, MAL Marques          : LibXC Library
   Liviu Ungur et al                             : ANISO software


 Your calculation uses the libint2 library for the computation of 2-el integrals
 For citations please refer to: http://libint.valeyev.net

 Your ORCA version has been built with support for libXC version: 5.1.0
 For citations please refer to: https://tddft.org/programs/libxc/

 This ORCA versions uses:
   CBLAS   interface :  Fast vector & matrix operations
   LAPACKE interface :  Fast linear algebra routines
   SCALAPACK package :  Parallel linear algebra routines
   Shared memory     :  Shared parallel matrices
   BLAS/LAPACK       :  OpenBLAS 0.3.15  USE64BITINT DYNAMIC_ARCH NO_AFFINITY Haswell SINGLE_THREADED
        Core in use  :  Haswell
   Copyright (c) 2011-2014, The OpenBLAS Project


Your calculation utilizes the atom-pairwise dispersion correction
based on tight binding partial charges (D4)
Cite in your paper:
E.Caldeweyher, C.Bannwarth, S.Grimme, J.Chem.Phys., (2017), 147, 034112.
E.Caldeweyher, S.Ehlert, A.Hansen, H.Neugebauer, S.Grimme, J.Chem.Phys., (2018), in progress.
   

================================================================================

----- Orbital basis set information -----
Your calculation utilizes the basis: def2-TZVP
   F. Weigend and R. Ahlrichs, Phys. Chem. Chem. Phys. 7, 3297 (2005).

----- AuxJ basis set information -----
Your calculation utilizes the auxiliary basis: def2/J
   F. Weigend, Phys. Chem. Chem. Phys. 8, 1057 (2006).

================================================================================
                                        WARNINGS
                       Please study these warnings very carefully!
================================================================================


WARNING: Geometry Optimization
  ===> : Switching off AutoStart
         For restart on a previous wavefunction, please use MOREAD

INFO   : the flag for use of the SHARK integral package has been found!

================================================================================
                                       INPUT FILE
================================================================================
NAME = IM3i-neworca/IM3i-neworca.inp
|  1> %pal nprocs 24 end
|  2> ! PBE0 def2-TZVP D4 CPCM(Toluene) Freq OPT
|  3> %maxcore 3000
|  4> %freq temp 433.15 end
|  5> 
|  6> * xyz 0 1
|  7> C       -2.779058000      0.745293000     -1.833077000
|  8> N       -1.775695000      0.837433000     -0.807642000
|  9> C       -1.446233000      2.008322000     -0.246186000
| 10> C       -0.472086000      1.782228000      0.892907000
| 11> C       -0.104886000      0.309017000      0.824210000
| 12> C        1.220131000     -0.055031000      0.361579000
| 13> N        1.832816000     -1.194269000      0.730494000
| 14> C        1.305820000     -2.166931000      1.663834000
| 15> C        2.974695000     -1.366551000     -0.008321000
| 16> C        3.054325000     -0.323637000     -0.860528000
| 17> N        1.956733000      0.470053000     -0.637764000
| 18> C        1.667339000      1.659667000     -1.414318000
| 19> O       -1.850350000      3.114509000     -0.585309000
| 20> C       -1.279230000     -0.408485000     -0.175322000
| 21> C       -2.306803000     -1.068439000      0.654550000
| 22> C       -2.397260000     -2.430990000      0.762145000
| 23> C       -1.626778000     -3.303809000     -0.020861000
| 24> C       -0.857762000     -2.712174000     -1.033396000
| 25> C       -0.729801000     -1.354351000     -1.167226000
| 26> H       -2.413566000      0.132679000     -2.659573000
| 27> H       -3.006631000      1.751521000     -2.181338000
| 28> H       -3.686570000      0.277602000     -1.441356000
| 29> H       -0.261477000     -0.176887000      1.783614000
| 30> H        1.034507000     -1.682192000      2.601046000
| 31> H        0.426873000     -2.663087000      1.234736000
| 32> H        2.083797000     -2.902083000      1.858340000
| 33> H        3.620881000     -2.215507000      0.131854000
| 34> H        3.790056000     -0.074639000     -1.605532000
| 35> H        2.252455000      1.610313000     -2.330220000
| 36> H        0.612456000      1.686335000     -1.677975000
| 37> H        1.937794000      2.562658000     -0.867635000
| 38> H       -2.934228000     -0.428611000      1.269094000
| 39> H       -3.119469000     -2.842257000      1.463483000
| 40> H       -0.359929000     -3.346475000     -1.763454000
| 41> H       -0.144028000     -0.943647000     -1.985610000
| 42> H       -1.745439000     -4.377557000      0.044727000
| 43> C       -1.110756000      2.179952000      2.218405000
| 44> H       -1.970070000      1.544819000      2.444997000
| 45> H       -0.390381000      2.082340000      3.033523000
| 46> H       -1.451039000      3.215706000      2.177152000
| 47> H        0.382725000      2.439925000      0.724907000
| 48> *
| 49> 
| 50>                          ****END OF INPUT****
================================================================================

                       *****************************
                       * Geometry Optimization Run *
                       *****************************

Geometry optimization settings:
Update method            Update   .... BFGS
Choice of coordinates    CoordSys .... Z-matrix Internals
Initial Hessian          InHess   .... Almoef's Model

Convergence Tolerances:
Energy Change            TolE     ....  5.0000e-06 Eh
Max. Gradient            TolMAXG  ....  3.0000e-04 Eh/bohr
RMS Gradient             TolRMSG  ....  1.0000e-04 Eh/bohr
Max. Displacement        TolMAXD  ....  4.0000e-03 bohr
RMS Displacement         TolRMSD  ....  2.0000e-03 bohr
Strict Convergence                ....  False
------------------------------------------------------------------------------
                        ORCA OPTIMIZATION COORDINATE SETUP
------------------------------------------------------------------------------

The optimization will be done in new redundant internal coordinates
Making redundant internal coordinates   ...  (new redundants) done
Evaluating the initial hessian          ...  (Almloef) done
Evaluating the coordinates              ...  done
Calculating the B-matrix                .... done
Calculating the G-matrix                .... done
Diagonalizing the G-matrix              .... done
Small eigenvalue found = 7.080e-03
Small eigenvalue found = 1.368e-02
Small eigenvalue found = 1.884e-02
Small eigenvalue found = 2.778e-02
The first mode is                       ....  119
The number of degrees of freedom        ....  117

    -----------------------------------------------------------------
                    Redundant Internal Coordinates


    -----------------------------------------------------------------
         Definition                    Initial Value    Approx d2E/dq
    -----------------------------------------------------------------
      1. B(N   1,C   0)                  1.4376         0.469791   
      2. B(C   2,N   1)                  1.3397         0.673206   
      3. B(C   3,C   2)                  1.5158         0.393597   
      4. B(C   4,C   3)                  1.5198         0.387785   
      5. B(C   5,C   4)                  1.4499         0.501374   
      6. B(N   6,C   5)                  1.3451         0.659904   
      7. B(C   7,N   6)                  1.4474         0.453235   
      8. B(C   8,N   6)                  1.3709         0.600232   
      9. B(C   9,C   8)                  1.3492         0.725898   
     10. B(N  10,C   5)                  1.3480         0.653064   
     11. B(N  10,C   9)                  1.3727         0.596340   
     12. B(C  11,N  10)                  1.4498         0.449203   
     13. B(O  12,C   2)                  1.2255         1.023883   
     14. B(C  13,C   4)                  1.7009         0.199419   
     15. B(C  13,N   1)                  1.4828         0.397980   
     16. B(C  14,C  13)                  1.4765         0.454663   
     17. B(C  15,C  14)                  1.3698         0.672968   
     18. B(C  16,C  15)                  1.4031         0.595546   
     19. B(C  17,C  16)                  1.4024         0.597037   
     20. B(C  18,C  17)                  1.3704         0.671468   
     21. B(C  18,C  13)                  1.4766         0.454507   
     22. B(H  19,C   0)                  1.0918         0.357758   
     23. B(H  20,C   0)                  1.0888         0.361639   
     24. B(H  21,C   0)                  1.0935         0.355490   
     25. B(H  22,C   4)                  1.0868         0.364392   
     26. B(H  23,C   7)                  1.0895         0.360799   
     27. B(H  24,C   7)                  1.0967         0.351290   
     28. B(H  25,C   7)                  1.0879         0.362887   
     29. B(H  26,C   8)                  1.0761         0.379004   
     30. B(H  27,C   9)                  1.0763         0.378746   
     31. B(H  28,C  11)                  1.0880         0.362799   
     32. B(H  29,C  11)                  1.0877         0.363209   
     33. B(H  30,C  11)                  1.0897         0.360525   
     34. B(H  31,C  14)                  1.0866         0.364622   
     35. B(H  32,C  15)                  1.0875         0.363456   
     36. B(H  33,C  17)                  1.0877         0.363113   
     37. B(H  34,C  18)                  1.0870         0.364096   
     38. B(H  35,C  16)                  1.0823         0.370467   
     39. B(C  36,C   3)                  1.5241         0.381692   
     40. B(H  37,C  36)                  1.0923         0.357047   
     41. B(H  38,C  36)                  1.0922         0.357211   
     42. B(H  39,C  36)                  1.0910         0.358780   
     43. B(H  40,C   3)                  1.0916         0.358049   
     44. A(H  20,C   0,H  21)          109.6559         0.290446   
     45. A(H  19,C   0,H  21)          108.0003         0.289955   
     46. A(N   1,C   0,H  21)          110.5557         0.334092   
     47. A(N   1,C   0,H  19)          110.0164         0.334445   
     48. A(N   1,C   0,H  20)          108.3478         0.335045   
     49. A(H  19,C   0,H  20)          110.2662         0.290736   
     50. A(C   0,N   1,C   2)          121.7754         0.413749   
     51. A(C   0,N   1,C  13)          118.9474         0.377322   
     52. A(C   2,N   1,C  13)          118.2506         0.401782   
     53. A(C   3,C   2,O  12)          123.6758         0.434906   
     54. A(N   1,C   2,C   3)          110.0369         0.403587   
     55. A(N   1,C   2,O  12)          126.2863         0.476372   
     56. A(C   4,C   3,C  36)          113.1720         0.367029   
     57. A(C  36,C   3,H  40)          107.7444         0.325161   
     58. A(C   2,C   3,C   4)          105.4197         0.368968   
     59. A(C   2,C   3,H  40)          107.3224         0.326808   
     60. A(C   4,C   3,H  40)          112.8231         0.326009   
     61. A(C   2,C   3,C  36)          110.2012         0.367967   
     62. A(C  13,C   4,H  22)          103.3378         0.293701   
     63. A(C   5,C   4,C  13)          109.7270         0.343406   
     64. A(C   5,C   4,H  22)          107.5234         0.341199   
     65. A(C   3,C   4,C  13)          105.5841         0.329035   
     66. A(C   3,C   4,H  22)          111.0188         0.326953   
     67. A(C   3,C   4,C   5)          118.5938         0.384733   
     68. A(C   4,C   5,N   6)          122.7788         0.419803   
     69. A(C   4,C   5,N  10)          129.6531         0.419024   
     70. A(N   6,C   5,N  10)          106.5197         0.437308   
     71. A(C   5,N   6,C   7)          125.4625         0.409671   
     72. A(C   5,N   6,C   8)          109.7562         0.430721   
     73. A(C   7,N   6,C   8)          124.4955         0.402865   
     74. A(H  24,C   7,H  25)          109.7157         0.290062   
     75. A(H  23,C   7,H  25)          108.9623         0.291281   
     76. A(N   6,C   7,H  25)          108.0009         0.333245   
     77. A(H  23,C   7,H  24)          109.7717         0.289799   
     78. A(N   6,C   7,H  24)          110.0912         0.331456   
     79. A(N   6,C   7,H  23)          110.2672         0.332927   
     80. A(C   9,C   8,H  26)          131.0481         0.365684   
     81. A(N   6,C   8,H  26)          121.9461         0.351851   
     82. A(N   6,C   8,C   9)          107.0034         0.441070   
     83. A(N  10,C   9,H  27)          121.6795         0.351424   
     84. A(C   8,C   9,H  27)          131.0278         0.365641   
     85. A(C   8,C   9,N  10)          107.2926         0.440552   
     86. A(C   9,N  10,C  11)          123.1691         0.401770   
     87. A(C   5,N  10,C  11)          127.4198         0.408269   
     88. A(C   5,N  10,C   9)          109.3917         0.429414   
     89. A(N  10,C  11,H  30)          111.2042         0.332392   
     90. A(H  28,C  11,H  30)          109.0539         0.291235   
     91. A(H  28,C  11,H  29)          108.5808         0.291575   
     92. A(N  10,C  11,H  29)          110.0933         0.332801   
     93. A(N  10,C  11,H  28)          107.8388         0.332738   
     94. A(H  29,C  11,H  30)          109.9996         0.291286   
     95. A(C  14,C  13,C  18)          110.4988         0.388842   
     96. A(C   4,C  13,C  18)          114.0836         0.337817   
     97. A(N   1,C  13,C  18)          112.1085         0.377546   
     98. A(C   4,C  13,C  14)          109.8014         0.337837   
     99. A(N   1,C  13,C  14)          112.4719         0.377568   
    100. A(N   1,C  13,C   4)           97.3146         0.328462   
    101. A(C  15,C  14,H  31)          120.2099         0.358612   
    102. A(C  13,C  14,H  31)          117.1636         0.335713   
    103. A(C  13,C  14,C  15)          122.3242         0.416697   
    104. A(C  16,C  15,H  32)          119.2977         0.351066   
    105. A(C  14,C  15,H  32)          118.0800         0.358416   
    106. A(C  14,C  15,C  16)          122.5953         0.437341   
    107. A(C  15,C  16,C  17)          116.2077         0.428029   
    108. A(C  17,C  16,H  35)          121.4959         0.352351   
    109. A(C  15,C  16,H  35)          121.5442         0.352202   
    110. A(C  18,C  17,H  33)          118.0026         0.358223   
    111. A(C  16,C  17,H  33)          119.3117         0.351158   
    112. A(C  16,C  17,C  18)          122.6652         0.437362   
    113. A(C  17,C  18,H  34)          119.8819         0.358388   
    114. A(C  13,C  18,H  34)          117.6605         0.335614   
    115. A(C  13,C  18,C  17)          122.2993         0.416506   
    116. A(H  38,C  36,H  39)          108.5895         0.290304   
    117. A(H  37,C  36,H  39)          108.3298         0.290283   
    118. A(C   3,C  36,H  39)          110.2152         0.325270   
    119. A(H  37,C  36,H  38)          108.1853         0.290084   
    120. A(C   3,C  36,H  38)          110.4469         0.325036   
    121. A(C   3,C  36,H  37)          110.9973         0.325011   
    122. D(C  13,N   1,C   0,H  21)     60.4401         0.018857   
    123. D(C  13,N   1,C   0,H  19)    -58.7599         0.018857   
    124. D(C   2,N   1,C   0,H  19)    133.0342         0.018857   
    125. D(C   2,N   1,C   0,H  20)     12.4228         0.018857   
    126. D(C   2,N   1,C   0,H  21)   -107.7658         0.018857   
    127. D(C  13,N   1,C   0,H  20)   -179.3713         0.018857   
    128. D(O  12,C   2,N   1,C   0)     -6.1493         0.037221   
    129. D(C   3,C   2,N   1,C   0)    174.2052         0.037221   
    130. D(O  12,C   2,N   1,C  13)   -174.4342         0.037221   
    131. D(C   3,C   2,N   1,C  13)      5.9203         0.037221   
    132. D(C  36,C   3,C   2,O  12)     65.4465         0.011515   
    133. D(H  40,C   3,C   2,N   1)    128.0422         0.011515   
    134. D(C  36,C   3,C   2,N   1)   -114.8969         0.011515   
    135. D(C   4,C   3,C   2,N   1)      7.5439         0.011515   
    136. D(C   4,C   3,C   2,O  12)   -172.1127         0.011515   
    137. D(H  40,C   3,C   2,O  12)    -51.6145         0.011515   
    138. D(H  22,C   4,C   3,H  40)    116.1344         0.011961   
    139. D(H  22,C   4,C   3,C   2)   -127.0465         0.011961   
    140. D(H  22,C   4,C   3,C  36)     -6.5357         0.011961   
    141. D(C  13,C   4,C   3,C  36)    104.7941         0.011961   
    142. D(C  13,C   4,C   3,H  40)   -132.5358         0.011961   
    143. D(C  13,C   4,C   3,C   2)    -15.7167         0.011961   
    144. D(C   5,C   4,C   3,C   2)    107.7273         0.011961   
    145. D(C   5,C   4,C   3,H  40)     -9.0917         0.011961   
    146. D(C   5,C   4,C   3,C  36)   -131.7618         0.011961   
    147. D(N  10,C   5,C   4,C  13)     81.3137         0.018558   
    148. D(N  10,C   5,C   4,C   3)    -40.0522         0.018558   
    149. D(N   6,C   5,C   4,C  13)    -85.3353         0.018558   
    150. D(N   6,C   5,C   4,H  22)     26.3941         0.018558   
    151. D(N  10,C   5,C   4,H  22)   -166.9568         0.018558   
    152. D(N   6,C   5,C   4,C   3)    153.2987         0.018558   
    153. D(C   8,N   6,C   5,N  10)      1.7591         0.035634   
    154. D(C   8,N   6,C   5,C   4)    171.0722         0.035634   
    155. D(C   7,N   6,C   5,N  10)   -172.3089         0.035634   
    156. D(C   7,N   6,C   5,C   4)     -2.9957         0.035634   
    157. D(H  25,C   7,N   6,C   8)     14.3931         0.017527   
    158. D(H  25,C   7,N   6,C   5)   -172.3845         0.017527   
    159. D(H  23,C   7,N   6,C   5)    -53.4240         0.017527   
    160. D(H  24,C   7,N   6,C   5)     67.8432         0.017527   
    161. D(H  23,C   7,N   6,C   8)    133.3536         0.017527   
    162. D(H  24,C   7,N   6,C   8)   -105.3792         0.017527   
    163. D(H  26,C   8,N   6,C   7)     -6.2451         0.029032   
    164. D(H  26,C   8,N   6,C   5)    179.6170         0.029032   
    165. D(C   9,C   8,N   6,C   7)    173.2383         0.029032   
    166. D(C   9,C   8,N   6,C   5)     -0.8995         0.029032   
    167. D(H  27,C   9,C   8,H  26)     -0.7862         0.037349   
    168. D(H  27,C   9,C   8,N   6)    179.7950         0.037349   
    169. D(N  10,C   9,C   8,H  26)    179.1008         0.037349   
    170. D(N  10,C   9,C   8,N   6)     -0.3180         0.037349   
    171. D(C  11,N  10,C   9,C   8)   -177.0795         0.028630   
    172. D(C   5,N  10,C   9,H  27)   -178.6753         0.028630   
    173. D(C   5,N  10,C   9,C   8)      1.4248         0.028630   
    174. D(C  11,N  10,C   9,H  27)      2.8204         0.028630   
    175. D(C   9,N  10,C   5,C   4)   -170.2703         0.034835   
    176. D(C   9,N  10,C   5,N   6)     -1.9538         0.034835   
    177. D(C  11,N  10,C   5,N   6)    176.4698         0.034835   
    178. D(C  11,N  10,C   5,C   4)      8.1533         0.034835   
    179. D(H  30,C  11,N  10,C   5)     79.6291         0.017213   
    180. D(H  29,C  11,N  10,C   9)    135.6750         0.017213   
    181. D(H  29,C  11,N  10,C   5)    -42.5485         0.017213   
    182. D(H  28,C  11,N  10,C   9)     17.3708         0.017213   
    183. D(H  30,C  11,N  10,C   9)   -102.1474         0.017213   
    184. D(H  28,C  11,N  10,C   5)   -160.8527         0.017213   
    185. D(C  18,C  13,C   4,H  22)   -107.4298         0.004016   
    186. D(C  18,C  13,C   4,C   5)      7.0109         0.004016   
    187. D(C  18,C  13,C   4,C   3)    135.9028         0.004016   
    188. D(C  14,C  13,C   4,C   5)    131.6648         0.004016   
    189. D(C  14,C  13,C   4,C   3)    -99.4433         0.004016   
    190. D(N   1,C  13,C   4,H  22)    134.3406         0.004016   
    191. D(N   1,C  13,C   4,C   5)   -111.2187         0.004016   
    192. D(N   1,C  13,C   4,C   3)     17.6732         0.004016   
    193. D(C  18,C  13,N   1,C   2)   -134.4708         0.013526   
    194. D(C  18,C  13,N   1,C   0)     56.9058         0.013526   
    195. D(C  14,C  13,C   4,H  22)     17.2241         0.004016   
    196. D(C  14,C  13,N   1,C   2)    100.2843         0.013526   
    197. D(C  14,C  13,N   1,C   0)    -68.3391         0.013526   
    198. D(C   4,C  13,N   1,C   2)    -14.7210         0.013526   
    199. D(C   4,C  13,N   1,C   0)    176.6556         0.013526   
    200. D(H  31,C  14,C  13,C  18)   -167.0189         0.015242   
    201. D(H  31,C  14,C  13,C   4)     66.2799         0.015242   
    202. D(H  31,C  14,C  13,N   1)    -40.8998         0.015242   
    203. D(C  15,C  14,C  13,C  18)     19.2896         0.015242   
    204. D(C  15,C  14,C  13,C   4)   -107.4116         0.015242   
    205. D(C  15,C  14,C  13,N   1)    145.4087         0.015242   
    206. D(H  32,C  15,C  14,H  31)      0.8912         0.031695   
    207. D(H  32,C  15,C  14,C  13)    174.3957         0.031695   
    208. D(C  16,C  15,C  14,H  31)    178.9860         0.031695   
    209. D(C  16,C  15,C  14,C  13)     -7.5095         0.031695   
    210. D(H  35,C  16,C  15,H  32)      1.0151         0.024431   
    211. D(H  35,C  16,C  15,C  14)   -177.0573         0.024431   
    212. D(C  17,C  16,C  15,H  32)    171.2189         0.024431   
    213. D(C  17,C  16,C  15,C  14)     -6.8536         0.024431   
    214. D(H  33,C  17,C  16,H  35)     -0.6801         0.024560   
    215. D(H  33,C  17,C  16,C  15)   -170.8890         0.024560   
    216. D(C  18,C  17,C  16,H  35)    177.6349         0.024560   
    217. D(C  18,C  17,C  16,C  15)      7.4260         0.024560   
    218. D(H  34,C  18,C  17,H  33)      0.0109         0.031543   
    219. D(H  34,C  18,C  17,C  16)   -178.3250         0.031543   
    220. D(C  13,C  18,C  17,H  33)   -175.3077         0.031543   
    221. D(C  13,C  18,C  17,C  16)      6.3564         0.031543   
    222. D(H  34,C  18,C  13,C  14)    165.8617         0.015232   
    223. D(H  34,C  18,C  13,C   4)    -69.8571         0.015232   
    224. D(H  34,C  18,C  13,N   1)     39.5393         0.015232   
    225. D(C  17,C  18,C  13,C  14)    -18.7208         0.015232   
    226. D(C  17,C  18,C  13,C   4)    105.5603         0.015232   
    227. D(C  17,C  18,C  13,N   1)   -145.0433         0.015232   
    228. D(H  39,C  36,C   3,H  40)     60.5888         0.011606   
    229. D(H  39,C  36,C   3,C   4)   -173.9631         0.011606   
    230. D(H  39,C  36,C   3,C   2)    -56.2096         0.011606   
    231. D(H  38,C  36,C   3,H  40)    -59.4006         0.011606   
    232. D(H  38,C  36,C   3,C   4)     66.0474         0.011606   
    233. D(H  38,C  36,C   3,C   2)   -176.1991         0.011606   
    234. D(H  37,C  36,C   3,H  40)   -179.3915         0.011606   
    235. D(H  37,C  36,C   3,C   4)    -53.9435         0.011606   
    236. D(H  37,C  36,C   3,C   2)     63.8100         0.011606   
    -----------------------------------------------------------------

Number of atoms                         .... 41
Number of degrees of freedom            .... 236

         *************************************************************
         *                GEOMETRY OPTIMIZATION CYCLE   1            *
         *************************************************************
---------------------------------
CARTESIAN COORDINATES (ANGSTROEM)
---------------------------------
  C     -2.779058    0.745293   -1.833077
  N     -1.775695    0.837433   -0.807642
  C     -1.446233    2.008322   -0.246186
  C     -0.472086    1.782228    0.892907
  C     -0.104886    0.309017    0.824210
  C      1.220131   -0.055031    0.361579
  N      1.832816   -1.194269    0.730494
  C      1.305820   -2.166931    1.663834
  C      2.974695   -1.366551   -0.008321
  C      3.054325   -0.323637   -0.860528
  N      1.956733    0.470053   -0.637764
  C      1.667339    1.659667   -1.414318
  O     -1.850350    3.114509   -0.585309
  C     -1.279230   -0.408485   -0.175322
  C     -2.306803   -1.068439    0.654550
  C     -2.397260   -2.430990    0.762145
  C     -1.626778   -3.303809   -0.020861
  C     -0.857762   -2.712174   -1.033396
  C     -0.729801   -1.354351   -1.167226
  H     -2.413566    0.132679   -2.659573
  H     -3.006631    1.751521   -2.181338
  H     -3.686570    0.277602   -1.441356
  H     -0.261477   -0.176887    1.783614
  H      1.034507   -1.682192    2.601046
  H      0.426873   -2.663087    1.234736
  H      2.083797   -2.902083    1.858340
  H      3.620881   -2.215507    0.131854
  H      3.790056   -0.074639   -1.605532
  H      2.252455    1.610313   -2.330220
  H      0.612456    1.686335   -1.677975
  H      1.937794    2.562658   -0.867635
  H     -2.934228   -0.428611    1.269094
  H     -3.119469   -2.842257    1.463483
  H     -0.359929   -3.346475   -1.763454
  H     -0.144028   -0.943647   -1.985610
  H     -1.745439   -4.377557    0.044727
  C     -1.110756    2.179952    2.218405
  H     -1.970070    1.544819    2.444997
  H     -0.390381    2.082340    3.033523
  H     -1.451039    3.215706    2.177152
  H      0.382725    2.439925    0.724907

----------------------------
CARTESIAN COORDINATES (A.U.)
----------------------------
  NO LB      ZA    FRAG     MASS         X           Y           Z
   0 C     6.0000    0    12.011   -5.251659    1.408400   -3.464014
   1 N     7.0000    0    14.007   -3.355577    1.582519   -1.526222
   2 C     6.0000    0    12.011   -2.732984    3.795179   -0.465224
   3 C     6.0000    0    12.011   -0.892113    3.367923    1.687350
   4 C     6.0000    0    12.011   -0.198206    0.583958    1.557531
   5 C     6.0000    0    12.011    2.305713   -0.103994    0.683285
   6 N     7.0000    0    14.007    3.463520   -2.256841    1.380434
   7 C     6.0000    0    12.011    2.467642   -4.094906    3.144191
   8 C     6.0000    0    12.011    5.621359   -2.582407   -0.015724
   9 C     6.0000    0    12.011    5.771838   -0.611585   -1.626162
  10 N     7.0000    0    14.007    3.697689    0.888271   -1.205199
  11 C     6.0000    0    12.011    3.150814    3.136316   -2.672674
  12 O     8.0000    0    15.999   -3.496655    5.885569   -1.106074
  13 C     6.0000    0    12.011   -2.417394   -0.771925   -0.331311
  14 C     6.0000    0    12.011   -4.359226   -2.019057    1.236920
  15 C     6.0000    0    12.011   -4.530165   -4.593905    1.440245
  16 C     6.0000    0    12.011   -3.074165   -6.243294   -0.039422
  17 C     6.0000    0    12.011   -1.620935   -5.125266   -1.952835
  18 C     6.0000    0    12.011   -1.379124   -2.559352   -2.205737
  19 H     1.0000    0     1.008   -4.560979    0.250727   -5.025865
  20 H     1.0000    0     1.008   -5.681709    3.309895   -4.122131
  21 H     1.0000    0     1.008   -6.966608    0.524592   -2.723768
  22 H     1.0000    0     1.008   -0.494120   -0.334268    3.370542
  23 H     1.0000    0     1.008    1.954935   -3.178882    4.915265
  24 H     1.0000    0     1.008    0.806673   -5.032505    2.333313
  25 H     1.0000    0     1.008    3.937806   -5.484142    3.511754
  26 H     1.0000    0     1.008    6.842473   -4.186701    0.249168
  27 H     1.0000    0     1.008    7.162168   -0.141047   -3.034016
  28 H     1.0000    0     1.008    4.256523    3.043051   -4.403478
  29 H     1.0000    0     1.008    1.157374    3.186711   -3.170913
  30 H     1.0000    0     1.008    3.661900    4.842722   -1.639593
  31 H     1.0000    0     1.008   -5.544887   -0.809957    2.398240
  32 H     1.0000    0     1.008   -5.894942   -5.371087    2.765582
  33 H     1.0000    0     1.008   -0.680167   -6.323921   -3.332445
  34 H     1.0000    0     1.008   -0.272173   -1.783234   -3.752259
  35 H     1.0000    0     1.008   -3.298402   -8.272384    0.084522
  36 C     6.0000    0    12.011   -2.099025    4.119512    4.192178
  37 H     1.0000    0     1.008   -3.722893    2.919285    4.620375
  38 H     1.0000    0     1.008   -0.737713    3.935052    5.732528
  39 H     1.0000    0     1.008   -2.742066    6.076804    4.114221
  40 H     1.0000    0     1.008    0.723245    4.610790    1.369876

--------------------------------
INTERNAL COORDINATES (ANGSTROEM)
--------------------------------
 C      0   0   0     0.000000000000     0.00000000     0.00000000
 N      1   0   0     1.437617483406     0.00000000     0.00000000
 C      2   1   0     1.339686194488   121.77544809     0.00000000
 C      3   2   1     1.515788157064   110.03694862   174.20522670
 C      4   3   2     1.519837415097   105.41969313     7.54389288
 C      5   4   3     1.449906355167   118.59381816   107.72734968
 N      6   5   4     1.345118733456   122.77876596   153.29873096
 C      7   6   5     1.447383745197   125.46247822   357.00427750
 C      7   6   5     1.370918065528   109.75620309   171.07223401
 C      9   7   6     1.349172827752   107.00335413   359.10046398
 N      6   5   4     1.347954800841   129.65308727   319.94779131
 C     11   6   5     1.449816012861   127.41980245     8.15327636
 O      3   2   1     1.225546668955   126.28626309   353.85074370
 C      2   1   3     1.482773664909   118.94742728   168.20591137
 C     14   2   1     1.476527374900   112.47193051   291.66086935
 C     15  14   2     1.369782603363   122.32423822   145.40865324
 C     16  15  14     1.403051643783   122.59528942   352.49045213
 C     17  16  15     1.402371101993   116.20769793   353.14644781
 C     18  17  16     1.370389647418   122.66515078     7.42602571
 H      1   2   3     1.091776512422   110.01643009   133.03418094
 H      1   2   3     1.088838822983   108.34783188    12.42276376
 H      1   2   3     1.093507312946   110.55568150   252.23419534
 H      5   4   3     1.086774803588   111.01883412   232.95349426
 H      8   7   6     1.089471878955   110.26722347   306.57596799
 H      8   7   6     1.096742311917   110.09121827    67.84319053
 H      8   7   6     1.087901309710   108.00085780   187.61545808
 H      9   7   6     1.076072333608   121.94606820   179.61703025
 H     10   9   7     1.076257900496   131.02780347   179.79497139
 H     12  11   6     1.087967382037   107.83879656   199.14728571
 H     12  11   6     1.087660029403   110.09326726   317.45149464
 H     12  11   6     1.089679290248   111.20415627    79.62914034
 H     15  14   2     1.086603114364   117.16359754   319.10021265
 H     16  15  14     1.087474769921   118.07996135   174.39570657
 H     18  17  16     1.087731647905   119.31165043   189.11101842
 H     19  18  17     1.086995931272   119.88191919   181.67495152
 H     17  16  15     1.082273988493   121.54420988   182.94268234
 C      4   3   2     1.524148515428   110.20122433   245.10310802
 H     37   4   3     1.092317908280   110.99731292    63.80999224
 H     37   4   3     1.092193021903   110.44691113   183.80092147
 H     37   4   3     1.090999852710   110.21521297   303.79036773
 H      4   3   2     1.091554483079   107.32235934   128.04217079

---------------------------
INTERNAL COORDINATES (A.U.)
---------------------------
 C      0   0   0     0.000000000000     0.00000000     0.00000000
 N      1   0   0     2.716703328974     0.00000000     0.00000000
 C      2   1   0     2.531640012977   121.77544809     0.00000000
 C      3   2   1     2.864424493891   110.03694862   174.20522670
 C      4   3   2     2.872076482621   105.41969313     7.54389288
 C      5   4   3     2.739925931098   118.59381816   107.72734968
 N      6   5   4     2.541906023839   122.77876596   153.29873096
 C      7   6   5     2.735158889111   125.46247822   357.00427750
 C      7   6   5     2.590659695892   109.75620309   171.07223401
 C      9   7   6     2.549567151780   107.00335413   359.10046398
 N      6   5   4     2.547265414493   129.65308727   319.94779131
 C     11   6   5     2.739755208881   127.41980245     8.15327636
 O      3   2   1     2.315947568665   126.28626309   353.85074370
 C      2   1   3     2.802036145270   118.94742728   168.20591137
 C     14   2   1     2.790232367799   112.47193051   291.66086935
 C     15  14   2     2.588513983365   122.32423822   145.40865324
 C     16  15  14     2.651383358497   122.59528942   352.49045213
 C     17  16  15     2.650097320893   116.20769793   353.14644781
 C     18  17  16     2.589661130381   122.66515078     7.42602571
 H      1   2   3     2.063158607925   110.01643009   133.03418094
 H      1   2   3     2.057607179418   108.34783188    12.42276376
 H      1   2   3     2.066429346908   110.55568150   252.23419534
 H      5   4   3     2.053706748027   111.01883412   232.95349426
 H      8   7   6     2.058803481834   110.26722347   306.57596799
 H      8   7   6     2.072542609007   110.09121827    67.84319053
 H      8   7   6     2.055835536086   108.00085780   187.61545808
 H      9   7   6     2.033482010809   121.94606820   179.61703025
 H     10   9   7     2.033832681407   131.02780347   179.79497139
 H     12  11   6     2.055960394689   107.83879656   199.14728571
 H     12  11   6     2.055379582385   110.09326726   317.45149464
 H     12  11   6     2.059195432374   111.20415627    79.62914034
 H     15  14   2     2.053382302413   117.16359754   319.10021265
 H     16  15  14     2.055029492699   118.07996135   174.39570657
 H     18  17  16     2.055514921739   119.31165043   189.11101842
 H     19  18  17     2.054124618790   119.88191919   181.67495152
 H     17  16  15     2.045201440119   121.54420988   182.94268234
 C      4   3   2     2.880223281581   110.20122433   245.10310802
 H     37   4   3     2.064181697827   110.99731292    63.80999224
 H     37   4   3     2.063945696776   110.44691113   183.80092147
 H     37   4   3     2.061690933771   110.21521297   303.79036773
 H      4   3   2     2.062739033273   107.32235934   128.04217079

---------------------
BASIS SET INFORMATION
---------------------
There are 4 groups of distinct atoms

 Group   1 Type C   : 11s6p2d1f contracted to 5s3p2d1f pattern {62111/411/11/1}
 Group   2 Type N   : 11s6p2d1f contracted to 5s3p2d1f pattern {62111/411/11/1}
 Group   3 Type O   : 11s6p2d1f contracted to 5s3p2d1f pattern {62111/411/11/1}
 Group   4 Type H   : 5s1p contracted to 3s1p pattern {311/1}

Atom   0C    basis set group =>   1
Atom   1N    basis set group =>   2
Atom   2C    basis set group =>   1
Atom   3C    basis set group =>   1
Atom   4C    basis set group =>   1
Atom   5C    basis set group =>   1
Atom   6N    basis set group =>   2
Atom   7C    basis set group =>   1
Atom   8C    basis set group =>   1
Atom   9C    basis set group =>   1
Atom  10N    basis set group =>   2
Atom  11C    basis set group =>   1
Atom  12O    basis set group =>   3
Atom  13C    basis set group =>   1
Atom  14C    basis set group =>   1
Atom  15C    basis set group =>   1
Atom  16C    basis set group =>   1
Atom  17C    basis set group =>   1
Atom  18C    basis set group =>   1
Atom  19H    basis set group =>   4
Atom  20H    basis set group =>   4
Atom  21H    basis set group =>   4
Atom  22H    basis set group =>   4
Atom  23H    basis set group =>   4
Atom  24H    basis set group =>   4
Atom  25H    basis set group =>   4
Atom  26H    basis set group =>   4
Atom  27H    basis set group =>   4
Atom  28H    basis set group =>   4
Atom  29H    basis set group =>   4
Atom  30H    basis set group =>   4
Atom  31H    basis set group =>   4
Atom  32H    basis set group =>   4
Atom  33H    basis set group =>   4
Atom  34H    basis set group =>   4
Atom  35H    basis set group =>   4
Atom  36C    basis set group =>   1
Atom  37H    basis set group =>   4
Atom  38H    basis set group =>   4
Atom  39H    basis set group =>   4
Atom  40H    basis set group =>   4
---------------------------------
AUXILIARY/J BASIS SET INFORMATION
---------------------------------
There are 4 groups of distinct atoms

 Group   1 Type C   : 12s5p4d2f1g contracted to 6s4p3d1f1g pattern {711111/2111/211/2/1}
 Group   2 Type N   : 12s5p4d2f1g contracted to 6s4p3d1f1g pattern {711111/2111/211/2/1}
 Group   3 Type O   : 12s5p4d2f1g contracted to 6s4p3d1f1g pattern {711111/2111/211/2/1}
 Group   4 Type H   : 5s2p1d contracted to 3s1p1d pattern {311/2/1}

Atom   0C    basis set group =>   1
Atom   1N    basis set group =>   2
Atom   2C    basis set group =>   1
Atom   3C    basis set group =>   1
Atom   4C    basis set group =>   1
Atom   5C    basis set group =>   1
Atom   6N    basis set group =>   2
Atom   7C    basis set group =>   1
Atom   8C    basis set group =>   1
Atom   9C    basis set group =>   1
Atom  10N    basis set group =>   2
Atom  11C    basis set group =>   1
Atom  12O    basis set group =>   3
Atom  13C    basis set group =>   1
Atom  14C    basis set group =>   1
Atom  15C    basis set group =>   1
Atom  16C    basis set group =>   1
Atom  17C    basis set group =>   1
Atom  18C    basis set group =>   1
Atom  19H    basis set group =>   4
Atom  20H    basis set group =>   4
Atom  21H    basis set group =>   4
Atom  22H    basis set group =>   4
Atom  23H    basis set group =>   4
Atom  24H    basis set group =>   4
Atom  25H    basis set group =>   4
Atom  26H    basis set group =>   4
Atom  27H    basis set group =>   4
Atom  28H    basis set group =>   4
Atom  29H    basis set group =>   4
Atom  30H    basis set group =>   4
Atom  31H    basis set group =>   4
Atom  32H    basis set group =>   4
Atom  33H    basis set group =>   4
Atom  34H    basis set group =>   4
Atom  35H    basis set group =>   4
Atom  36C    basis set group =>   1
Atom  37H    basis set group =>   4
Atom  38H    basis set group =>   4
Atom  39H    basis set group =>   4
Atom  40H    basis set group =>   4


           ************************************************************
           *        Program running with 24 parallel MPI-processes    *
           *              working on a common directory               *
           ************************************************************
------------------------------------------------------------------------------
                           ORCA GTO INTEGRAL CALCULATION
                           -- RI-GTO INTEGRALS CHOSEN --
------------------------------------------------------------------------------
------------------------------------------------------------------------------
                   ___                                                        
                  /   \      - P O W E R E D   B Y -                         
                 /     \                                                     
                 |  |  |   _    _      __       _____    __    __             
                 |  |  |  | |  | |    /  \     |  _  \  |  |  /  |          
                  \  \/   | |  | |   /    \    | | | |  |  | /  /          
                 / \  \   | |__| |  /  /\  \   | |_| |  |  |/  /          
                |  |  |   |  __  | /  /__\  \  |    /   |      \           
                |  |  |   | |  | | |   __   |  |    \   |  |\   \          
                \     /   | |  | | |  |  |  |  | |\  \  |  | \   \       
                 \___/    |_|  |_| |__|  |__|  |_| \__\ |__|  \__/        
                                                                              
                      - O R C A' S   B I G   F R I E N D -                    
                                      &                                       
                       - I N T E G R A L  F E E D E R -                       
                                                                              
 v1 FN, 2020, v2 2021                                                         
------------------------------------------------------------------------------


Reading SHARK input file IM3i-neworca/IM3i-neworca.SHARKINP.tmp ... ok
----------------------
SHARK INTEGRAL PACKAGE
----------------------

Number of atoms                             ...     41
Number of basis functions                   ...    746
Number of shells                            ...    304
Maximum angular momentum                    ...      3
Integral batch strategy                     ... SHARK/LIBINT Hybrid
RI-J (if used) integral strategy            ... SPLIT-RIJ (Revised 2003 algorithm where possible)
Printlevel                                  ...      1
Contraction scheme used                     ... SEGMENTED contraction
Coulomb Range Separation                    ... NOT USED
Exchange Range Separation                   ... NOT USED
Finite Nucleus Model                        ... NOT USED
Auxiliary Coulomb fitting basis             ... AVAILABLE
   # of basis functions in Aux-J            ...   1211
   # of shells in Aux-J                     ...    405
   Maximum angular momentum in Aux-J        ...      4
Auxiliary J/K fitting basis                 ... NOT available
Auxiliary Correlation fitting basis         ... NOT available
Auxiliary 'external' fitting basis          ... NOT available
Integral threshold                          ...     2.500000e-11
Primitive cut-off                           ...     2.500000e-12
Primitive pair pre-selection threshold      ...     2.500000e-12

Calculating pre-screening integrals         ... done (  0.1 sec) Dimension = 304
Organizing shell pair data                  ... done (  0.5 sec)
Shell pair information
Total number of shell pairs                 ...     46360
Shell pairs after pre-screening             ...     37696
Total number of primitive shell pairs       ...    139104
Primitive shell pairs kept                  ...     76758
          la=0 lb=0:  10455 shell pairs
          la=1 lb=0:  10846 shell pairs
          la=1 lb=1:   2876 shell pairs
          la=2 lb=0:   5297 shell pairs
          la=2 lb=1:   2802 shell pairs
          la=2 lb=2:    715 shell pairs
          la=3 lb=0:   2495 shell pairs
          la=3 lb=1:   1358 shell pairs
          la=3 lb=2:    680 shell pairs
          la=3 lb=3:    172 shell pairs

Calculating one electron integrals          ... done (  0.1 sec)
Calculating RI/J V-Matrix + Cholesky decomp.... done (  0.2 sec)
Calculating Nuclear repulsion               ... done (  0.0 sec) ENN=   1697.695458260008 Eh

SHARK setup successfully completed in   1.5 seconds

Maximum memory used throughout the entire GTOINT-calculation: 55.7 MB


           ************************************************************
           *        Program running with 24 parallel MPI-processes    *
           *              working on a common directory               *
           ************************************************************
-------------------------------------------------------------------------------
                                 ORCA SCF
-------------------------------------------------------------------------------

------------
SCF SETTINGS
------------
Hamiltonian:
 Density Functional     Method          .... DFT(GTOs)
 Exchange Functional    Exchange        .... PBE
   PBE kappa parameter   XKappa         ....  0.804000
   PBE mue parameter    XMuePBE         ....  0.219520
 Correlation Functional Correlation     .... PBE
   PBE beta parameter  CBetaPBE         ....  0.066725
 LDA part of GGA corr.  LDAOpt          .... PW91-LDA
 Gradients option       PostSCFGGA      .... off
 Hybrid DFT is turned on
   Fraction HF Exchange ScalHFX         ....  0.250000
   Scaling of DF-GGA-X  ScalDFX         ....  0.750000
   Scaling of DF-GGA-C  ScalDFC         ....  1.000000
   Scaling of DF-LDA-C  ScalLDAC        ....  1.000000
   Perturbative correction              ....  0.000000
   Density functional embedding theory  .... OFF
   NL short-range parameter             ....  6.900000
 RI-approximation to the Coulomb term is turned on
   Number of AuxJ basis functions       .... 1211
   RIJ-COSX (HFX calculated with COS-X)).... on


General Settings:
 Integral files         IntName         .... IM3i-neworca/IM3i-neworca
 Hartree-Fock type      HFTyp           .... RHF
 Total Charge           Charge          ....    0
 Multiplicity           Mult            ....    1
 Number of Electrons    NEL             ....  146
 Basis Dimension        Dim             ....  746
 Nuclear Repulsion      ENuc            ....   1697.6954582600 Eh

Convergence Acceleration:
 DIIS                   CNVDIIS         .... on
   Start iteration      DIISMaxIt       ....    12
   Startup error        DIISStart       ....  0.200000
   # of expansion vecs  DIISMaxEq       ....     5
   Bias factor          DIISBfac        ....   1.050
   Max. coefficient     DIISMaxC        ....  10.000
 Trust-Rad. Augm. Hess. CNVTRAH         .... auto
   Auto Start mean grad. ratio tolernc. ....  1.125000
   Auto Start start iteration           ....    20
   Auto Start num. interpolation iter.  ....    10
   Max. Number of Micro iterations      ....    16
   Max. Number of Macro iterations      .... Maxiter - #DIIS iter
   Number of Davidson start vectors     ....     2
   Converg. threshold I  (grad. norm)   ....   1.000e-05
   Converg. threshold II (energy diff.) ....   1.000e-08
   Grad. Scal. Fac. for Micro threshold ....   0.100
   Minimum threshold for Micro iter.    ....   0.010
   NR start threshold (gradient norm)   ....   0.001
   Initial trust radius                 ....   0.400
   Minimum AH scaling param. (alpha)    ....   1.000
   Maximum AH scaling param. (alpha)    .... 1000.000
   Orbital update algorithm             .... Taylor
   White noise on init. David. guess    .... on
   Maximum white noise                  ....   0.010
   Quad. conv. algorithm                .... NR
 SOSCF                  CNVSOSCF        .... on
   Start iteration      SOSCFMaxIt      ....   150
   Startup grad/error   SOSCFStart      ....  0.003300
 Level Shifting         CNVShift        .... on
   Level shift para.    LevelShift      ....    0.2500
   Turn off err/grad.   ShiftErr        ....    0.0010
 Zerner damping         CNVZerner       .... off
 Static damping         CNVDamp         .... on
   Fraction old density DampFac         ....    0.7000
   Max. Damping (<1)    DampMax         ....    0.9800
   Min. Damping (>=0)   DampMin         ....    0.0000
   Turn off err/grad.   DampErr         ....    0.1000
 Fernandez-Rico         CNVRico         .... off

SCF Procedure:
 Maximum # iterations   MaxIter         ....   125
 SCF integral mode      SCFMode         .... Direct
   Integral package                     .... SHARK and LIBINT hybrid scheme
 Reset frequency        DirectResetFreq ....    20
 Integral Threshold     Thresh          ....  2.500e-11 Eh
 Primitive CutOff       TCut            ....  2.500e-12 Eh

Convergence Tolerance:
 Convergence Check Mode ConvCheckMode   .... Total+1el-Energy
 Convergence forced     ConvForced      .... 0
 Energy Change          TolE            ....  1.000e-08 Eh
 1-El. energy change                    ....  1.000e-05 Eh
 Orbital Gradient       TolG            ....  1.000e-05
 Orbital Rotation angle TolX            ....  1.000e-05
 DIIS Error             TolErr          ....  5.000e-07


Diagonalization of the overlap matrix:
Smallest eigenvalue                        ... 5.807e-06
Time for diagonalization                   ...    0.168 sec
Threshold for overlap eigenvalues          ... 1.000e-08
Number of eigenvalues below threshold      ... 0
Time for construction of square roots      ...    0.092 sec
Total time needed                          ...    0.265 sec

Time for model grid setup =    0.288 sec

------------------------------
INITIAL GUESS: MODEL POTENTIAL
------------------------------
Loading Hartree-Fock densities                     ... done
Calculating cut-offs                               ... done
Initializing the effective Hamiltonian             ... done
Setting up the integral package (SHARK)            ... done
Starting the Coulomb interaction                   ... done (   0.4 sec)
Reading the grid                                   ... done
Mapping shells                                     ... done
Starting the XC term evaluation                    ... done (   0.2 sec)
  promolecular density results
     # of electrons  =    145.980884585
     EX              =   -115.969987591
     EC              =     -4.925426110
     EX+EC           =   -120.895413701
Transforming the Hamiltonian                       ... done (   0.1 sec)
Diagonalizing the Hamiltonian                      ... done (   0.2 sec)
Back transforming the eigenvectors                 ... done (   0.0 sec)
Now organizing SCF variables                       ... done
                      ------------------
                      INITIAL GUESS DONE (   1.3 sec)
                      ------------------
-------------------
DFT GRID GENERATION
-------------------

General Integration Accuracy     IntAcc      ... 4.388
Radial Grid Type                 RadialGrid  ... OptM3 with GC (2021)
Angular Grid (max. ang.)         AngularGrid ... 4 (Lebedev-302)
Angular grid pruning method      GridPruning ... 4 (adaptive)
Weight generation scheme         WeightScheme... Becke
Basis function cutoff            BFCut       ... 1.0000e-11
Integration weight cutoff        WCut        ... 1.0000e-14
Angular grids for H and He will be reduced by one unit
Partially contracted basis set               ... off
Rotationally invariant grid construction     ... off

Total number of grid points                  ...   184984
Total number of batches                      ...     2911
Average number of points per batch           ...       63
Average number of grid points per atom       ...     4512
Time for grid setup =    1.172 sec

--------------------
COSX GRID GENERATION
--------------------

GRIDX 1
-------
General Integration Accuracy     IntAcc      ... 3.816
Radial Grid Type                 RadialGrid  ... OptM3 with GC (2021)
Angular Grid (max. ang.)         AngularGrid ... 1 (Lebedev-50)
Angular grid pruning method      GridPruning ... 4 (adaptive)
Weight generation scheme         WeightScheme... Becke
Basis function cutoff            BFCut       ... 1.0000e-11
Integration weight cutoff        WCut        ... 1.0000e-14
Angular grids for H and He will be reduced by one unit
Partially contracted basis set               ... on
Rotationally invariant grid construction     ... off

Total number of grid points                  ...    23487
Total number of batches                      ...      388
Average number of points per batch           ...       60
Average number of grid points per atom       ...      573
UseSFitting                                  ... on

GRIDX 2
-------
General Integration Accuracy     IntAcc      ... 4.020
Radial Grid Type                 RadialGrid  ... OptM3 with GC (2021)
Angular Grid (max. ang.)         AngularGrid ... 2 (Lebedev-110)
Angular grid pruning method      GridPruning ... 4 (adaptive)
Weight generation scheme         WeightScheme... Becke
Basis function cutoff            BFCut       ... 1.0000e-11
Integration weight cutoff        WCut        ... 1.0000e-14
Angular grids for H and He will be reduced by one unit
Partially contracted basis set               ... on
Rotationally invariant grid construction     ... off

Total number of grid points                  ...    49864
Total number of batches                      ...      800
Average number of points per batch           ...       62
Average number of grid points per atom       ...     1216
UseSFitting                                  ... on

GRIDX 3
-------
General Integration Accuracy     IntAcc      ... 4.338
Radial Grid Type                 RadialGrid  ... OptM3 with GC (2021)
Angular Grid (max. ang.)         AngularGrid ... 3 (Lebedev-194)
Angular grid pruning method      GridPruning ... 4 (adaptive)
Weight generation scheme         WeightScheme... Becke
Basis function cutoff            BFCut       ... 1.0000e-11
Integration weight cutoff        WCut        ... 1.0000e-14
Angular grids for H and He will be reduced by one unit
Partially contracted basis set               ... on
Rotationally invariant grid construction     ... off

Total number of grid points                  ...   108472
Total number of batches                      ...     1716
Average number of points per batch           ...       63
Average number of grid points per atom       ...     2646
UseSFitting                                  ... on

Time for X-Grid setup             =    2.034 sec


--------------------
CPCM SOLVATION MODEL
--------------------
CPCM parameters:
  Epsilon                                         ...       2.4000
  Refrac                                          ...       1.4970
  Rsolv                                           ...       1.3000
  Surface type                                    ... GAUSSIAN VDW
  Epsilon function type                           ...         CPCM
Radii:
 Radius for C  used is    3.8550 Bohr (=   2.0400 Ang.)
 Radius for N  used is    3.5149 Bohr (=   1.8600 Ang.)
 Radius for O  used is    3.4469 Bohr (=   1.8240 Ang.)
 Radius for H  used is    2.4944 Bohr (=   1.3200 Ang.)
Calculating surface                               ...        done! (  0.0s)
GEPOL surface points                              ...         2040
GEPOL Volume                                      ...    2232.1604
GEPOL Surface-area                                ...    1088.2697
Calculating surface distance matrix               ...        done! (  0.1s)
Performing Cholesky decomposition & store         ...        done! (  0.3s)
Overall time for CPCM initialization              ...                 0.4s
--------------
SCF ITERATIONS
--------------
ITER       Energy         Delta-E        Max-DP      RMS-DP      [F,P]     Damp
               ***  Starting incremental Fock matrix formation  ***
  0   -860.5581065240   0.000000000000 0.25944561  0.00121866  0.2814626 0.7000
  1   -860.7898459867  -0.231739462736 0.25030818  0.00116852  0.1186785 0.7000
                               ***Turning on DIIS***
  2   -860.8887736957  -0.098927708975 0.36059073  0.00183977  0.0373580 0.0000
  3   -861.0349768442  -0.146203148563 0.24021803  0.00118608  0.0607831 0.0000
  4   -861.0708339504  -0.035857106122 0.06511174  0.00041381  0.0108824 0.0000
  5   -861.0723963932  -0.001562442879 0.03999602  0.00018038  0.0101553 0.0000
                      *** Initiating the SOSCF procedure ***
                           *** Shutting down DIIS ***
                      *** Re-Reading the Fockian *** 
                      *** Removing any level shift *** 
ITER      Energy       Delta-E        Grad      Rot      Max-DP    RMS-DP
  6   -861.07260618  -0.0002097834  0.000399  0.000399  0.011924  0.000072
               *** Restarting incremental Fock matrix formation ***
  7   -861.07256679   0.0000393912  0.000227  0.001352  0.006068  0.000048
  8   -861.07256727  -0.0000004827  0.000215  0.000387  0.002431  0.000019
  9   -861.07257049  -0.0000032187  0.000048  0.000112  0.001132  0.000009
 10   -861.07257039   0.0000000933  0.000046  0.000121  0.000849  0.000003
 11   -861.07257066  -0.0000002689  0.000019  0.000078  0.000572  0.000004
 12   -861.07257065   0.0000000082  0.000018  0.000032  0.000087  0.000001
                  ***Gradient check signals convergence***
              ***Rediagonalizing the Fockian in SOSCF/NRSCF***

               *****************************************************
               *                     SUCCESS                       *
               *           SCF CONVERGED AFTER  13 CYCLES          *
               *****************************************************

Old exchange energy                            =    -29.663366185 Eh
New exchange energy                            =    -29.663356746 Eh
Exchange energy change after final integration =      0.000009439 Eh
Total energy after final integration           =   -861.072561227 Eh
Final COS-X integration done in                =    13.405 sec

----------------
TOTAL SCF ENERGY
----------------

Total Energy       :         -861.07256123 Eh          -23430.97560 eV

Components:
Nuclear Repulsion  :         1697.69545826 Eh           46196.64201 eV
Electronic Energy  :        -2558.76801949 Eh          -69627.61761 eV
One Electron Energy:        -4541.19416677 Eh         -123572.17557 eV
Two Electron Energy:         1982.42614729 Eh           53944.55796 eV
Max COSX asymmetry :            0.00000244 Eh               0.00007 eV
CPCM Dielectric    :           -0.01923842 Eh              -0.52350 eV

Virial components:
Potential Energy   :        -1718.09259950 Eh          -46751.67644 eV
Kinetic Energy     :          857.02003828 Eh           23320.70084 eV
Virial Ratio       :            2.00472862


DFT components:
N(Alpha)           :       73.000025562938 electrons
N(Beta)            :       73.000025562938 electrons
N(Total)           :      146.000051125876 electrons
E(X)               :      -88.717837058500 Eh       
E(C)               :       -4.914093136908 Eh       
E(XC)              :      -93.631930195408 Eh       
DFET-embed. en.    :        0.000000000000 Eh       
CPCM Solvation Model Properties:
Surface-charge          :           -0.03432460
Charge-correction       :           -0.00012934 Eh              -0.00352 eV
Free-energy (cav+disp)  :  This term is not implemented in the current solvation scheme

---------------
SCF CONVERGENCE
---------------

  Last Energy change         ...   -1.2100e-08  Tolerance :   1.0000e-08
  Last MAX-Density change    ...    1.4433e-15  Tolerance :   1.0000e-07
  Last RMS-Density change    ...    1.2614e-17  Tolerance :   5.0000e-09
  Last Orbital Gradient      ...    1.5870e-06  Tolerance :   1.0000e-05
  Last Orbital Rotation      ...    4.1532e-06  Tolerance :   1.0000e-05

             **** THE GBW FILE WAS UPDATED (IM3i-neworca/IM3i-neworca.gbw) ****
             **** DENSITY IM3i-neworca/IM3i-neworca.scfp WAS UPDATED ****
             **** ENERGY FILE WAS UPDATED (IM3i-neworca/IM3i-neworca.en.tmp) ****
             **** THE GBW FILE WAS UPDATED (IM3i-neworca/IM3i-neworca.gbw) ****
             **** DENSITY IM3i-neworca/IM3i-neworca.scfp WAS UPDATED ****
----------------
ORBITAL ENERGIES
----------------

  NO   OCC          E(Eh)            E(eV) 
   0   2.0000     -19.158259      -521.3227 
   1   2.0000     -14.482301      -394.0834 
   2   2.0000     -14.479511      -394.0075 
   3   2.0000     -14.401762      -391.8919 
   4   2.0000     -10.326865      -281.0083 
   5   2.0000     -10.303176      -280.3637 
   6   2.0000     -10.283122      -279.8180 
   7   2.0000     -10.281774      -279.7813 
   8   2.0000     -10.278365      -279.6885 
   9   2.0000     -10.268205      -279.4121 
  10   2.0000     -10.267465      -279.3919 
  11   2.0000     -10.238647      -278.6078 
  12   2.0000     -10.237593      -278.5791 
  13   2.0000     -10.229185      -278.3503 
  14   2.0000     -10.213185      -277.9149 
  15   2.0000     -10.193208      -277.3713 
  16   2.0000     -10.190384      -277.2945 
  17   2.0000     -10.177048      -276.9316 
  18   2.0000     -10.174775      -276.8697 
  19   2.0000     -10.163998      -276.5764 
  20   2.0000      -1.112236       -30.2655 
  21   2.0000      -1.057185       -28.7675 
  22   2.0000      -0.993318       -27.0295 
  23   2.0000      -0.965912       -26.2838 
  24   2.0000      -0.864348       -23.5201 
  25   2.0000      -0.833541       -22.6818 
  26   2.0000      -0.826315       -22.4852 
  27   2.0000      -0.803743       -21.8710 
  28   2.0000      -0.750070       -20.4104 
  29   2.0000      -0.737915       -20.0797 
  30   2.0000      -0.731998       -19.9187 
  31   2.0000      -0.723449       -19.6860 
  32   2.0000      -0.708523       -19.2799 
  33   2.0000      -0.675454       -18.3800 
  34   2.0000      -0.639258       -17.3951 
  35   2.0000      -0.618021       -16.8172 
  36   2.0000      -0.604836       -16.4584 
  37   2.0000      -0.589604       -16.0439 
  38   2.0000      -0.567677       -15.4473 
  39   2.0000      -0.551198       -14.9988 
  40   2.0000      -0.532619       -14.4933 
  41   2.0000      -0.518550       -14.1105 
  42   2.0000      -0.511279       -13.9126 
  43   2.0000      -0.492451       -13.4003 
  44   2.0000      -0.487999       -13.2791 
  45   2.0000      -0.485040       -13.1986 
  46   2.0000      -0.482985       -13.1427 
  47   2.0000      -0.473472       -12.8838 
  48   2.0000      -0.472671       -12.8620 
  49   2.0000      -0.457880       -12.4595 
  50   2.0000      -0.442970       -12.0538 
  51   2.0000      -0.435873       -11.8607 
  52   2.0000      -0.432365       -11.7653 
  53   2.0000      -0.427428       -11.6309 
  54   2.0000      -0.423109       -11.5134 
  55   2.0000      -0.417209       -11.3528 
  56   2.0000      -0.412103       -11.2139 
  57   2.0000      -0.395252       -10.7554 
  58   2.0000      -0.393385       -10.7046 
  59   2.0000      -0.388797       -10.5797 
  60   2.0000      -0.376854       -10.2547 
  61   2.0000      -0.375827       -10.2268 
  62   2.0000      -0.367671       -10.0048 
  63   2.0000      -0.351984        -9.5780 
  64   2.0000      -0.335206        -9.1214 
  65   2.0000      -0.329069        -8.9544 
  66   2.0000      -0.312450        -8.5022 
  67   2.0000      -0.310933        -8.4609 
  68   2.0000      -0.272605        -7.4180 
  69   2.0000      -0.262475        -7.1423 
  70   2.0000      -0.249192        -6.7808 
  71   2.0000      -0.232332        -6.3221 
  72   2.0000      -0.141770        -3.8578 
  73   0.0000      -0.024874        -0.6769 
  74   0.0000       0.006746         0.1836 
  75   0.0000       0.027895         0.7590 
  76   0.0000       0.032176         0.8756 
  77   0.0000       0.044999         1.2245 
  78   0.0000       0.052023         1.4156 
  79   0.0000       0.059532         1.6200 
  80   0.0000       0.071115         1.9351 
  81   0.0000       0.077954         2.1212 
  82   0.0000       0.085180         2.3179 
  83   0.0000       0.088624         2.4116 
  84   0.0000       0.090762         2.4698 
  85   0.0000       0.097654         2.6573 
  86   0.0000       0.098536         2.6813 
  87   0.0000       0.108097         2.9415 
  88   0.0000       0.108600         2.9552 
  89   0.0000       0.115374         3.1395 
  90   0.0000       0.116647         3.1741 
  91   0.0000       0.123405         3.3580 
  92   0.0000       0.128656         3.5009 
  93   0.0000       0.135658         3.6914 
  94   0.0000       0.137005         3.7281 
  95   0.0000       0.141331         3.8458 
  96   0.0000       0.144994         3.9455 
  97   0.0000       0.151675         4.1273 
  98   0.0000       0.154088         4.1929 
  99   0.0000       0.155724         4.2375 
 100   0.0000       0.161538         4.3957 
 101   0.0000       0.163202         4.4409 
 102   0.0000       0.172150         4.6845 
 103   0.0000       0.177793         4.8380 
 104   0.0000       0.186097         5.0640 
 105   0.0000       0.196494         5.3469 
 106   0.0000       0.199388         5.4256 
 107   0.0000       0.204509         5.5650 
 108   0.0000       0.208803         5.6818 
 109   0.0000       0.211766         5.7625 
 110   0.0000       0.216688         5.8964 
 111   0.0000       0.221557         6.0289 
 112   0.0000       0.234678         6.3859 
 113   0.0000       0.236755         6.4424 
 114   0.0000       0.242381         6.5955 
 115   0.0000       0.249282         6.7833 
 116   0.0000       0.251123         6.8334 
 117   0.0000       0.257804         7.0152 
 118   0.0000       0.263636         7.1739 
 119   0.0000       0.265122         7.2143 
 120   0.0000       0.269923         7.3450 
 121   0.0000       0.271247         7.3810 
 122   0.0000       0.280031         7.6200 
 123   0.0000       0.283160         7.7052 
 124   0.0000       0.291265         7.9257 
 125   0.0000       0.293281         7.9806 
 126   0.0000       0.300792         8.1850 
 127   0.0000       0.305152         8.3036 
 128   0.0000       0.306892         8.3510 
 129   0.0000       0.316607         8.6153 
 130   0.0000       0.318444         8.6653 
 131   0.0000       0.324816         8.8387 
 132   0.0000       0.336410         9.1542 
 133   0.0000       0.340453         9.2642 
 134   0.0000       0.346052         9.4165 
 135   0.0000       0.351102         9.5540 
 136   0.0000       0.355628         9.6771 
 137   0.0000       0.364827         9.9275 
 138   0.0000       0.369050        10.0423 
 139   0.0000       0.370761        10.0889 
 140   0.0000       0.381304        10.3758 
 141   0.0000       0.384168        10.4537 
 142   0.0000       0.388819        10.5803 
 143   0.0000       0.393150        10.6982 
 144   0.0000       0.395736        10.7685 
 145   0.0000       0.399628        10.8744 
 146   0.0000       0.409197        11.1348 
 147   0.0000       0.409442        11.1415 
 148   0.0000       0.414478        11.2785 
 149   0.0000       0.415701        11.3118 
 150   0.0000       0.423697        11.5294 
 151   0.0000       0.426583        11.6079 
 152   0.0000       0.427227        11.6254 
 153   0.0000       0.433845        11.8055 
 154   0.0000       0.437109        11.8944 
 155   0.0000       0.441947        12.0260 
 156   0.0000       0.446036        12.1373 
 157   0.0000       0.449836        12.2407 
 158   0.0000       0.453910        12.3515 
 159   0.0000       0.459901        12.5145 
 160   0.0000       0.460664        12.5353 
 161   0.0000       0.464100        12.6288 
 162   0.0000       0.468131        12.7385 
 163   0.0000       0.474542        12.9129 
 164   0.0000       0.481234        13.0950 
 165   0.0000       0.485570        13.2130 
 166   0.0000       0.487029        13.2527 
 167   0.0000       0.490307        13.3419 
 168   0.0000       0.491800        13.3826 
 169   0.0000       0.502346        13.6695 
 170   0.0000       0.506594        13.7851 
 171   0.0000       0.508297        13.8315 
 172   0.0000       0.510245        13.8845 
 173   0.0000       0.521274        14.1846 
 174   0.0000       0.524190        14.2639 
 175   0.0000       0.530638        14.4394 
 176   0.0000       0.534664        14.5489 
 177   0.0000       0.538441        14.6517 
 178   0.0000       0.540430        14.7059 
 179   0.0000       0.546667        14.8756 
 180   0.0000       0.548286        14.9196 
 181   0.0000       0.555778        15.1235 
 182   0.0000       0.557311        15.1652 
 183   0.0000       0.560440        15.2504 
 184   0.0000       0.570375        15.5207 
 185   0.0000       0.575394        15.6573 
 186   0.0000       0.585397        15.9295 
 187   0.0000       0.591447        16.0941 
 188   0.0000       0.596851        16.2411 
 189   0.0000       0.600432        16.3386 
 190   0.0000       0.615075        16.7370 
 191   0.0000       0.624764        17.0007 
 192   0.0000       0.626028        17.0351 
 193   0.0000       0.635771        17.3002 
 194   0.0000       0.637544        17.3484 
 195   0.0000       0.642004        17.4698 
 196   0.0000       0.649669        17.6784 
 197   0.0000       0.653640        17.7865 
 198   0.0000       0.663797        18.0628 
 199   0.0000       0.674291        18.3484 
 200   0.0000       0.683338        18.5946 
 201   0.0000       0.686788        18.6884 
 202   0.0000       0.695235        18.9183 
 203   0.0000       0.702723        19.1221 
 204   0.0000       0.714366        19.4389 
 205   0.0000       0.715184        19.4612 
 206   0.0000       0.722894        19.6709 
 207   0.0000       0.729380        19.8475 
 208   0.0000       0.734623        19.9901 
 209   0.0000       0.739245        20.1159 
 210   0.0000       0.745457        20.2849 
 211   0.0000       0.764607        20.8060 
 212   0.0000       0.772729        21.0270 
 213   0.0000       0.779206        21.2033 
 214   0.0000       0.785773        21.3820 
 215   0.0000       0.790685        21.5156 
 216   0.0000       0.798610        21.7313 
 217   0.0000       0.800367        21.7791 
 218   0.0000       0.811322        22.0772 
 219   0.0000       0.823689        22.4137 
 220   0.0000       0.824590        22.4382 
 221   0.0000       0.836070        22.7506 
 222   0.0000       0.842687        22.9307 
 223   0.0000       0.847377        23.0583 
 224   0.0000       0.854517        23.2526 
 225   0.0000       0.861644        23.4465 
 226   0.0000       0.880423        23.9575 
 227   0.0000       0.881044        23.9744 
 228   0.0000       0.900365        24.5002 
 229   0.0000       0.910481        24.7755 
 230   0.0000       0.911913        24.8144 
 231   0.0000       0.915200        24.9038 
 232   0.0000       0.920442        25.0465 
 233   0.0000       0.938104        25.5271 
 234   0.0000       0.940753        25.5992 
 235   0.0000       0.957977        26.0679 
 236   0.0000       0.964740        26.2519 
 237   0.0000       0.966176        26.2910 
 238   0.0000       0.976199        26.5637 
 239   0.0000       0.978913        26.6376 
 240   0.0000       0.993128        27.0244 
 241   0.0000       0.998912        27.1818 
 242   0.0000       1.003826        27.3155 
 243   0.0000       1.017347        27.6834 
 244   0.0000       1.022077        27.8121 
 245   0.0000       1.040560        28.3151 
 246   0.0000       1.043100        28.3842 
 247   0.0000       1.054339        28.6900 
 248   0.0000       1.059526        28.8312 
 249   0.0000       1.061155        28.8755 
 250   0.0000       1.064606        28.9694 
 251   0.0000       1.073778        29.2190 
 252   0.0000       1.077374        29.3168 
 253   0.0000       1.088417        29.6173 
 254   0.0000       1.097151        29.8550 
 255   0.0000       1.100668        29.9507 
 256   0.0000       1.107198        30.1284 
 257   0.0000       1.116247        30.3746 
 258   0.0000       1.119477        30.4625 
 259   0.0000       1.137599        30.9556 
 260   0.0000       1.143417        31.1140 
 261   0.0000       1.147744        31.2317 
 262   0.0000       1.160100        31.5679 
 263   0.0000       1.163660        31.6648 
 264   0.0000       1.174192        31.9514 
 265   0.0000       1.176923        32.0257 
 266   0.0000       1.186861        32.2961 
 267   0.0000       1.194530        32.5048 
 268   0.0000       1.212524        32.9945 
 269   0.0000       1.221959        33.2512 
 270   0.0000       1.230316        33.4786 
 271   0.0000       1.231746        33.5175 
 272   0.0000       1.239199        33.7203 
 273   0.0000       1.251913        34.0663 
 274   0.0000       1.262783        34.3621 
 275   0.0000       1.270595        34.5746 
 276   0.0000       1.278856        34.7994 
 277   0.0000       1.281382        34.8682 
 278   0.0000       1.295542        35.2535 
 279   0.0000       1.299010        35.3479 
 280   0.0000       1.307772        35.5863 
 281   0.0000       1.315305        35.7913 
 282   0.0000       1.321094        35.9488 
 283   0.0000       1.336175        36.3592 
 284   0.0000       1.343595        36.5611 
 285   0.0000       1.359977        37.0069 
 286   0.0000       1.365045        37.1448 
 287   0.0000       1.376716        37.4624 
 288   0.0000       1.386034        37.7159 
 289   0.0000       1.386340        37.7242 
 290   0.0000       1.399888        38.0929 
 291   0.0000       1.405819        38.2543 
 292   0.0000       1.413426        38.4613 
 293   0.0000       1.419805        38.6349 
 294   0.0000       1.440170        39.1890 
 295   0.0000       1.448911        39.4269 
 296   0.0000       1.450578        39.4722 
 297   0.0000       1.459543        39.7162 
 298   0.0000       1.474872        40.1333 
 299   0.0000       1.476892        40.1883 
 300   0.0000       1.493982        40.6533 
 301   0.0000       1.506468        40.9931 
 302   0.0000       1.515410        41.2364 
 303   0.0000       1.521309        41.3969 
 304   0.0000       1.523975        41.4695 
 305   0.0000       1.534391        41.7529 
 306   0.0000       1.536844        41.8196 
 307   0.0000       1.539991        41.9053 
 308   0.0000       1.547597        42.1123 
 309   0.0000       1.549566        42.1658 
 310   0.0000       1.557827        42.3906 
 311   0.0000       1.570450        42.7341 
 312   0.0000       1.574115        42.8339 
 313   0.0000       1.583138        43.0794 
 314   0.0000       1.589952        43.2648 
 315   0.0000       1.594790        43.3964 
[...]
 10:     97.97   0.000277    1.40  0.000883  ( 0.028070  0.006795  0.007009)
 11:    105.19   0.000037    0.19  0.000111  (-0.002334 -0.000009  0.010276)
 12:    133.69   0.000342    1.73  0.000798  ( 0.025508 -0.005861  0.010633)
 13:    154.05   0.000530    2.68  0.001074  (-0.004051 -0.003242  0.032357)
 14:    165.32   0.000285    1.44  0.000538  (-0.023049  0.000133  0.002547)
 15:    186.14   0.000575    2.91  0.000964  (-0.027562 -0.013892  0.003367)
 16:    189.73   0.000036    0.18  0.000059  ( 0.006738 -0.003263  0.001839)
 17:    207.06   0.001409    7.12  0.002124  (-0.031786 -0.032925 -0.005412)
 18:    233.41   0.002382   12.04  0.003185  ( 0.027312  0.042313  0.025472)
 19:    239.32   0.000800    4.04  0.001043  ( 0.007738 -0.007675 -0.030401)
 20:    243.66   0.009256   46.78  0.011855  ( 0.107502  0.017018  0.002867)
 21:    272.81   0.006638   33.55  0.007593  ( 0.066028  0.056641  0.005000)
 22:    283.93   0.017784   89.87  0.019546  (-0.121878 -0.061749 -0.029648)
 23:    295.52   0.000363    1.83  0.000383  (-0.011331 -0.001464 -0.015890)
 24:    329.12   0.002203   11.13  0.002089  (-0.029921 -0.021141 -0.027320)
 25:    358.75   0.003422   17.29  0.002977  (-0.007492 -0.039410 -0.036982)
 26:    367.45   0.000316    1.60  0.000269  (-0.004042  0.003369  0.015522)
 27:    381.23   0.000702    3.55  0.000575  ( 0.001620 -0.016054  0.017729)
 28:    433.06   0.010887   55.02  0.007845  (-0.078248 -0.041188  0.005071)
 29:    443.20   0.039276  198.49  0.027655  (-0.136183 -0.095429 -0.001667)
 30:    475.90   0.000614    3.10  0.000402  ( 0.001053 -0.016582 -0.011244)
 31:    490.88   0.001466    7.41  0.000932  (-0.020998  0.007167 -0.020967)
 32:    524.92   0.017555   88.72  0.010436  ( 0.081572 -0.019184  0.058433)
 33:    611.97   0.000589    2.98  0.000300  ( 0.011412 -0.009635  0.008789)
 34:    615.37   0.000071    0.36  0.000036  ( 0.001157 -0.000936  0.005826)
 35:    629.48   0.000062    0.32  0.000031  (-0.004107 -0.000257 -0.003741)
 36:    632.41   0.004990   25.22  0.002462  (-0.001702  0.043072 -0.024577)
 37:    655.45   0.013490   68.17  0.006423  (-0.070199 -0.022100 -0.031725)
 38:    658.69   0.010333   52.22  0.004896  ( 0.050138  0.048576  0.004703)
 39:    669.58   0.006309   31.88  0.002940  (-0.044149  0.014042 -0.028175)
 40:    697.43   0.012936   65.37  0.005788  ( 0.051619 -0.022068  0.051348)
 41:    726.13   0.011206   56.63  0.004816  (-0.037116 -0.036038 -0.046253)
 42:    741.12   0.014147   71.49  0.005957  (-0.065745 -0.034532 -0.021023)
 43:    752.59   0.003579   18.09  0.001484  (-0.010711 -0.029179 -0.022756)
 44:    754.69   0.006457   32.63  0.002670  ( 0.048337  0.007428  0.016687)
 45:    775.61   0.003202   16.18  0.001288  ( 0.005147  0.032264 -0.014857)
 46:    806.65   0.030875  156.03  0.011945  ( 0.095939  0.020238  0.048276)
 47:    838.01   0.003227   16.31  0.001202  ( 0.034138 -0.005552  0.002363)
 48:    853.96   0.000054    0.27  0.000020  ( 0.003918 -0.001247 -0.001635)
 49:    901.28   0.021569  109.00  0.007468  (-0.070690 -0.044329 -0.022500)
 50:    943.95   0.003514   17.76  0.001162  ( 0.017879  0.028775  0.003764)
 51:    952.42   0.005366   27.12  0.001758  (-0.022065 -0.035584  0.002258)
 52:    955.88   0.000767    3.88  0.000250  (-0.009547 -0.011997  0.003925)
 53:    980.03   0.006417   32.43  0.002043  (-0.005363  0.044881  0.000266)
 54:   1029.65   0.005139   25.97  0.001558  ( 0.005775  0.036517 -0.013814)
 55:   1033.99   0.008655   43.74  0.002612  (-0.002452  0.050770  0.005340)
 56:   1046.45   0.000671    3.39  0.000200  ( 0.009666  0.009583  0.003833)
 57:   1051.42   0.004365   22.06  0.001296  ( 0.007295  0.033028 -0.012314)
 58:   1073.60   0.001236    6.24  0.000359  (-0.005477  0.017944  0.002681)
 59:   1083.01   0.003411   17.24  0.000983  ( 0.006917  0.027786  0.012767)
 60:   1098.87   0.005226   26.41  0.001484  (-0.008823 -0.036469 -0.008727)
 61:   1114.35   0.002135   10.79  0.000598  ( 0.019773 -0.006931 -0.012601)
 62:   1115.73   0.003948   19.95  0.001104  ( 0.013548  0.023730  0.018913)
 63:   1139.69   0.003627   18.33  0.000993  ( 0.004232  0.031117 -0.002648)
 64:   1141.95   0.001902    9.61  0.000520  (-0.010728  0.020094  0.000980)
 65:   1143.53   0.000190    0.96  0.000052  (-0.006220 -0.000201  0.003605)
 66:   1146.89   0.001723    8.71  0.000469  ( 0.011921 -0.015377 -0.009505)
 67:   1149.46   0.008260   41.74  0.002242  (-0.003990 -0.044801  0.014812)
 68:   1153.20   0.000863    4.36  0.000233  (-0.000794 -0.013894 -0.006307)
 69:   1178.43   0.005950   30.07  0.001576  ( 0.033219  0.021481 -0.003260)
 70:   1193.18   0.002775   14.03  0.000726  (-0.011950  0.022398 -0.009021)
 71:   1251.46   0.006806   34.39  0.001697  (-0.013562  0.029767 -0.025041)
 72:   1262.47   0.007090   35.83  0.001753  ( 0.014049 -0.013471  0.037063)
 73:   1272.94   0.004207   21.26  0.001031  (-0.014389 -0.028328 -0.004670)
 74:   1276.04   0.004484   22.66  0.001096  ( 0.021590 -0.017474 -0.018027)
 75:   1293.33   0.003604   18.21  0.000870  (-0.029054  0.002351 -0.004457)
 76:   1320.57   0.000327    1.65  0.000077  (-0.000850  0.008522 -0.002001)
 77:   1354.17   0.004886   24.69  0.001126  (-0.016191  0.009265  0.027893)
 78:   1386.05   0.001557    7.87  0.000351  (-0.014533 -0.011744 -0.001193)
 79:   1392.07   0.000984    4.97  0.000221  (-0.011924  0.006997  0.005428)
 80:   1398.97   0.006646   33.59  0.001483  (-0.029910 -0.023240 -0.006917)
 81:   1408.59   0.000904    4.57  0.000200  ( 0.012184 -0.000533  0.007175)
 82:   1413.31   0.007734   39.09  0.001708  ( 0.000776  0.040516 -0.008099)
 83:   1447.07   0.004640   23.45  0.001001  (-0.016109 -0.026969  0.003728)
 84:   1452.53   0.019701   99.56  0.004233  (-0.040349 -0.049318 -0.013126)
 85:   1458.93   0.018661   94.31  0.003992  (-0.022718 -0.022082 -0.054662)
 86:   1459.97   0.000908    4.59  0.000194  ( 0.009678  0.008440  0.005411)
 87:   1463.57   0.008761   44.27  0.001868  ( 0.041412  0.012367  0.000269)
 88:   1475.14   0.002647   13.38  0.000560  ( 0.010852  0.004304  0.020584)
 89:   1479.66   0.001175    5.94  0.000248  (-0.005821 -0.014335  0.002913)
 90:   1482.32   0.001377    6.96  0.000290  (-0.005648 -0.009876 -0.012666)
 91:   1483.51   0.002920   14.75  0.000614  ( 0.023856  0.002911  0.006049)
 92:   1488.86   0.004307   21.76  0.000903  (-0.008170 -0.014252 -0.025157)
 93:   1502.52   0.001338    6.76  0.000278  (-0.004810  0.012547  0.009865)
 94:   1502.75   0.016786   84.83  0.003486  (-0.032649 -0.005594  0.048872)
 95:   1515.83   0.029314  148.14  0.006035  (-0.031631 -0.056516 -0.042898)
 96:   1530.48   0.001219    6.16  0.000248  ( 0.012780  0.007983  0.004628)
 97:   1564.36   0.042408  214.31  0.008460  (-0.091058  0.001398  0.012898)
 98:   1569.41   0.019253   97.30  0.003828  (-0.024248 -0.038581  0.041856)
 99:   1628.07   0.022457  113.49  0.004304  (-0.052848 -0.037499  0.010268)
100:   1639.85   0.044012  222.42  0.008375  ( 0.016535 -0.089771  0.006576)
101:   1740.41   0.138595  700.40  0.024851  (-0.027560  0.154974 -0.008610)
102:   3009.52   0.019235   97.20  0.001994  (-0.037161  0.003257 -0.024554)
103:   3047.40   0.009827   49.66  0.001006  ( 0.023258  0.008172  0.019965)
104:   3052.59   0.005130   25.93  0.000524  (-0.005152  0.006732  0.021274)
105:   3082.54   0.003646   18.43  0.000369  ( 0.007667  0.015972 -0.007432)
106:   3096.03   0.002911   14.71  0.000293  ( 0.005833  0.013907 -0.008124)
107:   3111.20   0.002928   14.80  0.000294  (-0.009902 -0.000644  0.013973)
108:   3128.42   0.001457    7.36  0.000145  (-0.009162 -0.004518  0.006403)
109:   3129.51   0.005249   26.53  0.000523  (-0.019537 -0.008279 -0.008553)
110:   3140.48   0.002702   13.66  0.000269  (-0.003018  0.016065 -0.001159)
111:   3141.77   0.004544   22.96  0.000451  ( 0.003555  0.020746  0.002875)
112:   3145.50   0.005487   27.73  0.000544  ( 0.006858  0.021861 -0.004410)
113:   3146.84   0.001257    6.35  0.000125  ( 0.006938  0.006535 -0.005812)
114:   3163.17   0.008526   43.09  0.000841  ( 0.016210  0.002623 -0.023906)
115:   3163.20   0.001715    8.67  0.000169  ( 0.008182 -0.007277 -0.007024)
116:   3166.96   0.001007    5.09  0.000099  (-0.003021  0.005438  0.007779)
117:   3168.36   0.006332   32.00  0.000624  (-0.018459  0.007159  0.015220)
118:   3176.16   0.000737    3.72  0.000072  ( 0.003367 -0.007512 -0.002145)
119:   3184.69   0.000023    0.12  0.000002  (-0.000028 -0.000721 -0.001318)
120:   3211.87   0.004741   23.96  0.000461  (-0.003868 -0.021100  0.000693)
121:   3297.31   0.002199   11.11  0.000208  (-0.001039 -0.010823  0.009483)
122:   3316.15   0.001545    7.81  0.000145  (-0.010482  0.004673  0.003705)

* The epsilon (eps) is given for a Dirac delta lineshape.
** The dipole moment derivative (T) already includes vibrational overlap.

The first frequency considered to be a vibration is 6
The total number of vibrations considered is 117


--------------------------
THERMOCHEMISTRY AT 433.15K
--------------------------

Temperature         ... 433.15 K
Pressure            ... 1.00 atm
Total Mass          ... 271.36 AMU

Throughout the following assumptions are being made:
  (1) The electronic state is orbitally nondegenerate
  (2) There are no thermally accessible electronically excited states
  (3) Hindered rotations indicated by low frequency modes are not
      treated as such but are treated as vibrations and this may
      cause some error
  (4) All equations used are the standard statistical mechanics
      equations for an ideal gas
  (5) All vibrations are strictly harmonic

freq.      34.82  E(vib)   ...       0.81 
freq.      50.68  E(vib)   ...       0.79 
freq.      70.49  E(vib)   ...       0.76 
freq.      78.99  E(vib)   ...       0.75 
freq.      97.97  E(vib)   ...       0.73 
freq.     105.19  E(vib)   ...       0.72 
freq.     133.69  E(vib)   ...       0.68 
freq.     154.05  E(vib)   ...       0.66 
freq.     165.32  E(vib)   ...       0.65 
freq.     186.14  E(vib)   ...       0.62 
freq.     189.73  E(vib)   ...       0.62 
freq.     207.06  E(vib)   ...       0.60 
freq.     233.41  E(vib)   ...       0.57 
freq.     239.32  E(vib)   ...       0.56 
freq.     243.66  E(vib)   ...       0.56 
freq.     272.81  E(vib)   ...       0.53 
freq.     283.93  E(vib)   ...       0.52 
freq.     295.52  E(vib)   ...       0.51 
freq.     329.12  E(vib)   ...       0.47 
freq.     358.75  E(vib)   ...       0.45 
freq.     367.45  E(vib)   ...       0.44 
freq.     381.23  E(vib)   ...       0.43 
freq.     433.06  E(vib)   ...       0.39 
freq.     443.20  E(vib)   ...       0.38 
freq.     475.90  E(vib)   ...       0.35 
freq.     490.88  E(vib)   ...       0.34 
freq.     524.92  E(vib)   ...       0.32 
freq.     611.97  E(vib)   ...       0.26 
freq.     615.37  E(vib)   ...       0.26 
freq.     629.48  E(vib)   ...       0.25 
freq.     632.41  E(vib)   ...       0.25 
freq.     655.45  E(vib)   ...       0.24 
freq.     658.69  E(vib)   ...       0.24 
freq.     669.58  E(vib)   ...       0.23 
freq.     697.43  E(vib)   ...       0.22 
freq.     726.13  E(vib)   ...       0.20 
freq.     741.12  E(vib)   ...       0.20 
freq.     752.59  E(vib)   ...       0.19 
freq.     754.69  E(vib)   ...       0.19 
freq.     775.61  E(vib)   ...       0.18 
freq.     806.65  E(vib)   ...       0.17 
freq.     838.01  E(vib)   ...       0.16 
freq.     853.96  E(vib)   ...       0.15 
freq.     901.28  E(vib)   ...       0.14 
freq.     943.95  E(vib)   ...       0.12 
freq.     952.42  E(vib)   ...       0.12 
freq.     955.88  E(vib)   ...       0.12 
freq.     980.03  E(vib)   ...       0.11 
freq.    1029.65  E(vib)   ...       0.10 
freq.    1033.99  E(vib)   ...       0.10 
freq.    1046.45  E(vib)   ...       0.10 
freq.    1051.42  E(vib)   ...       0.09 
freq.    1073.60  E(vib)   ...       0.09 
freq.    1083.01  E(vib)   ...       0.09 
freq.    1098.87  E(vib)   ...       0.08 
freq.    1114.35  E(vib)   ...       0.08 
freq.    1115.73  E(vib)   ...       0.08 
freq.    1139.69  E(vib)   ...       0.08 
freq.    1141.95  E(vib)   ...       0.08 
freq.    1143.53  E(vib)   ...       0.07 
freq.    1146.89  E(vib)   ...       0.07 
freq.    1149.46  E(vib)   ...       0.07 
freq.    1153.20  E(vib)   ...       0.07 
freq.    1178.43  E(vib)   ...       0.07 
freq.    1193.18  E(vib)   ...       0.07 
freq.    1251.46  E(vib)   ...       0.06 
freq.    1262.47  E(vib)   ...       0.06 
freq.    1272.94  E(vib)   ...       0.05 
freq.    1276.04  E(vib)   ...       0.05 
freq.    1293.33  E(vib)   ...       0.05 
freq.    1320.57  E(vib)   ...       0.05 
freq.    1354.17  E(vib)   ...       0.04 
freq.    1386.05  E(vib)   ...       0.04 
freq.    1392.07  E(vib)   ...       0.04 
freq.    1398.97  E(vib)   ...       0.04 
freq.    1408.59  E(vib)   ...       0.04 
freq.    1413.31  E(vib)   ...       0.04 
freq.    1447.07  E(vib)   ...       0.03 
freq.    1452.53  E(vib)   ...       0.03 
freq.    1458.93  E(vib)   ...       0.03 
freq.    1459.97  E(vib)   ...       0.03 
freq.    1463.57  E(vib)   ...       0.03 
freq.    1475.14  E(vib)   ...       0.03 
freq.    1479.66  E(vib)   ...       0.03 
freq.    1482.32  E(vib)   ...       0.03 
freq.    1483.51  E(vib)   ...       0.03 
freq.    1488.86  E(vib)   ...       0.03 
freq.    1502.52  E(vib)   ...       0.03 
freq.    1502.75  E(vib)   ...       0.03 
freq.    1515.83  E(vib)   ...       0.03 
freq.    1530.48  E(vib)   ...       0.03 
freq.    1564.36  E(vib)   ...       0.02 
freq.    1569.41  E(vib)   ...       0.02 
freq.    1628.07  E(vib)   ...       0.02 
freq.    1639.85  E(vib)   ...       0.02 
freq.    1740.41  E(vib)   ...       0.02 
freq.    3009.52  E(vib)   ...       0.00 
freq.    3047.40  E(vib)   ...       0.00 
freq.    3052.59  E(vib)   ...       0.00 
freq.    3082.54  E(vib)   ...       0.00 
freq.    3096.03  E(vib)   ...       0.00 
freq.    3111.20  E(vib)   ...       0.00 
freq.    3128.42  E(vib)   ...       0.00 
freq.    3129.51  E(vib)   ...       0.00 
freq.    3140.48  E(vib)   ...       0.00 
freq.    3141.77  E(vib)   ...       0.00 
freq.    3145.50  E(vib)   ...       0.00 
freq.    3146.84  E(vib)   ...       0.00 
freq.    3163.17  E(vib)   ...       0.00 
freq.    3163.20  E(vib)   ...       0.00 
freq.    3166.96  E(vib)   ...       0.00 
freq.    3168.36  E(vib)   ...       0.00 
freq.    3176.16  E(vib)   ...       0.00 
freq.    3184.69  E(vib)   ...       0.00 
freq.    3211.87  E(vib)   ...       0.00 
freq.    3297.31  E(vib)   ...       0.00 
freq.    3316.15  E(vib)   ...       0.00 

------------
INNER ENERGY
------------

The inner energy is: U= E(el) + E(ZPE) + E(vib) + E(rot) + E(trans)
    E(el)   - is the total energy from the electronic structure calculation
              = E(kin-el) + E(nuc-el) + E(el-el) + E(nuc-nuc)
    E(ZPE)  - the the zero temperature vibrational energy from the frequency calculation
    E(vib)  - the the finite temperature correction to E(ZPE) due to population
              of excited vibrational states
    E(rot)  - is the rotational thermal energy
    E(trans)- is the translational thermal energy

Summary of contributions to the inner energy U:
Electronic energy                ...   -861.12586700 Eh
Zero point energy                ...      0.34830505 Eh     218.56 kcal/mol
Thermal vibrational correction   ...      0.03460623 Eh      21.72 kcal/mol
Thermal rotational correction    ...      0.00205755 Eh       1.29 kcal/mol
Thermal translational correction ...      0.00205755 Eh       1.29 kcal/mol
-----------------------------------------------------------------------
Total thermal energy                   -860.73884063 Eh


Summary of corrections to the electronic energy:
(perhaps to be used in another calculation)
Total thermal correction                  0.03872132 Eh      24.30 kcal/mol
Non-thermal (ZPE) correction              0.34830505 Eh     218.56 kcal/mol
-----------------------------------------------------------------------
Total correction                          0.38702638 Eh     242.86 kcal/mol


--------
ENTHALPY
--------

The enthalpy is H = U + kB*T
                kB is Boltzmann's constant
Total free energy                 ...   -860.73884063 Eh 
Thermal Enthalpy correction       ...      0.00137174 Eh       0.86 kcal/mol
-----------------------------------------------------------------------
Total Enthalpy                    ...   -860.73746889 Eh


Note: Only C1 symmetry has been detected, increase convergence thresholds 
      if your molecule has a higher symmetry. Symmetry factor of 1.0 is   
      used for the rotational entropy correction. 
 

Note: Rotational entropy computed according to Herzberg 
Infrared and Raman Spectra, Chapter V,1, Van Nostrand Reinhold, 1945 
Point Group:  C1, Symmetry Number:   1  
Rotational constants in cm-1:     0.014989     0.012839     0.009406 

Vibrational entropy computed according to the QRRHO of S. Grimme
Chem.Eur.J. 2012 18 9955


-------
ENTROPY
-------

The entropy contributions are T*S = T*(S(el)+S(vib)+S(rot)+S(trans))
     S(el)   - electronic entropy
     S(vib)  - vibrational entropy
     S(rot)  - rotational entropy
     S(trans)- translational entropy
The entropies will be listed as multiplied by the temperature to get
units of energy

Electronic entropy                ...      0.00000000 Eh      0.00 kcal/mol
Vibrational entropy               ...      0.06169805 Eh     38.72 kcal/mol
Rotational entropy                ...      0.02365406 Eh     14.84 kcal/mol
Translational entropy             ...      0.03075081 Eh     19.30 kcal/mol
-----------------------------------------------------------------------
Final entropy term                ...      0.11610291 Eh     72.86 kcal/mol

In case the symmetry of your molecule has not been determined correctly
or in case you have a reason to use a different symmetry number we print 
out the resulting rotational entropy values for sn=1,12 :
 --------------------------------------------------------
|  sn= 1 | S(rot)=       0.02365406 Eh     14.84 kcal/mol|
|  sn= 2 | S(rot)=       0.02270327 Eh     14.25 kcal/mol|
|  sn= 3 | S(rot)=       0.02214709 Eh     13.90 kcal/mol|
|  sn= 4 | S(rot)=       0.02175248 Eh     13.65 kcal/mol|
|  sn= 5 | S(rot)=       0.02144640 Eh     13.46 kcal/mol|
|  sn= 6 | S(rot)=       0.02119631 Eh     13.30 kcal/mol|
|  sn= 7 | S(rot)=       0.02098486 Eh     13.17 kcal/mol|
|  sn= 8 | S(rot)=       0.02080169 Eh     13.05 kcal/mol|
|  sn= 9 | S(rot)=       0.02064013 Eh     12.95 kcal/mol|
|  sn=10 | S(rot)=       0.02049561 Eh     12.86 kcal/mol|
|  sn=11 | S(rot)=       0.02036487 Eh     12.78 kcal/mol|
|  sn=12 | S(rot)=       0.02024552 Eh     12.70 kcal/mol|
 --------------------------------------------------------


-------------------
GIBBS FREE ENERGY
-------------------

The Gibbs free energy is G = H - T*S

Total enthalpy                    ...   -860.73746889 Eh 
Total entropy correction          ...     -0.11610291 Eh    -72.86 kcal/mol
-----------------------------------------------------------------------
Final Gibbs free energy         ...   -860.85357180 Eh

For completeness - the Gibbs free energy minus the electronic energy
G-E(el)                           ...      0.27229520 Eh    170.87 kcal/mol


Timings for individual modules:

Sum of individual times         ...     2324.857 sec (=  38.748 min)
GTO integral calculation        ...        5.168 sec (=   0.086 min)   0.2 %
SCF iterations                  ...      194.963 sec (=   3.249 min)   8.4 %
SCF Gradient evaluation         ...       29.952 sec (=   0.499 min)   1.3 %
Geometry relaxation             ...        0.277 sec (=   0.005 min)   0.0 %
Analytical frequency calculation...     2094.498 sec (=  34.908 min)  90.1 %
                             ****ORCA TERMINATED NORMALLY****
TOTAL RUN TIME: 0 days 0 hours 38 minutes 49 seconds 428 msec
