
                                 *****************
                                 * O   R   C   A *
                                 *****************

                                            #,                                       
                                            ###                                      
                                            ####                                     
                                            #####                                    
                                            ######                                   
                                           ########,                                 
                                     ,,################,,,,,                         
                               ,,#################################,,                 
                          ,,##########################################,,             
                       ,#########################################, ''#####,          
                    ,#############################################,,   '####,        
                  ,##################################################,,,,####,       
                ,###########''''           ''''###############################       
              ,#####''   ,,,,##########,,,,          '''####'''          '####       
            ,##' ,,,,###########################,,,                        '##       
           ' ,,###''''                  '''############,,,                           
         ,,##''                                '''############,,,,        ,,,,,,###''
      ,#''                                            '''#######################'''  
     '                                                          ''''####''''         
             ,#######,   #######,   ,#######,      ##                                
            ,#'     '#,  ##    ##  ,#'     '#,    #''#        ######   ,####,        
            ##       ##  ##   ,#'  ##            #'  '#       #        #'  '#        
            ##       ##  #######   ##           ,######,      #####,   #    #        
            '#,     ,#'  ##    ##  '#,     ,#' ,#      #,         ##   #,  ,#        
             '#######'   ##     ##  '#######'  #'      '#     #####' # '####'        



                  #######################################################
                  #                        -***-                        #
                  #          Department of theory and spectroscopy      #
                  #    Directorship and core code : Frank Neese         #
                  #        Max Planck Institute fuer Kohlenforschung    #
                  #                Kaiser Wilhelm Platz 1               #
                  #                 D-45470 Muelheim/Ruhr               #
                  #                      Germany                        #
                  #                                                     #
                  #                  All rights reserved                #
                  #                        -***-                        #
                  #######################################################


                         Program Version 5.0.4 -  RELEASE  -


 With contributions from (in alphabetic order):
   Daniel Aravena         : Magnetic Suceptibility
   Michael Atanasov       : Ab Initio Ligand Field Theory (pilot matlab implementation)
   Alexander A. Auer      : GIAO ZORA, VPT2 properties, NMR spectrum
   Ute Becker             : Parallelization
   Giovanni Bistoni       : ED, misc. LED, open-shell LED, HFLD
   Martin Brehm           : Molecular dynamics
   Dmytro Bykov           : SCF Hessian
   Vijay G. Chilkuri      : MRCI spin determinant printing, contributions to CSF-ICE
   Dipayan Datta          : RHF DLPNO-CCSD density
   Achintya Kumar Dutta   : EOM-CC, STEOM-CC
   Dmitry Ganyushin       : Spin-Orbit,Spin-Spin,Magnetic field MRCI
   Miquel Garcia          : C-PCM and meta-GGA Hessian, CC/C-PCM, Gaussian charge scheme
   Yang Guo               : DLPNO-NEVPT2, F12-NEVPT2, CIM, IAO-localization
   Andreas Hansen         : Spin unrestricted coupled pair/coupled cluster methods
   Benjamin Helmich-Paris : MC-RPA, TRAH-SCF, COSX integrals
   Lee Huntington         : MR-EOM, pCC
   Robert Izsak           : Overlap fitted RIJCOSX, COSX-SCS-MP3, EOM
   Marcus Kettner         : VPT2
   Christian Kollmar      : KDIIS, OOCD, Brueckner-CCSD(T), CCSD density, CASPT2, CASPT2-K
   Simone Kossmann        : Meta GGA functionals, TD-DFT gradient, OOMP2, MP2 Hessian
   Martin Krupicka        : Initial AUTO-CI
   Lucas Lang             : DCDCAS
   Marvin Lechner         : AUTO-CI (C++ implementation), FIC-MRCC
   Dagmar Lenk            : GEPOL surface, SMD
   Dimitrios Liakos       : Extrapolation schemes; Compound Job, initial MDCI parallelization
   Dimitrios Manganas     : Further ROCIS development; embedding schemes
   Dimitrios Pantazis     : SARC Basis sets
   Anastasios Papadopoulos: AUTO-CI, single reference methods and gradients
   Taras Petrenko         : DFT Hessian,TD-DFT gradient, ASA, ECA, R-Raman, ABS, FL, XAS/XES, NRVS
   Peter Pinski           : DLPNO-MP2, DLPNO-MP2 Gradient
   Christoph Reimann      : Effective Core Potentials
   Marius Retegan         : Local ZFS, SOC
   Christoph Riplinger    : Optimizer, TS searches, QM/MM, DLPNO-CCSD(T), (RO)-DLPNO pert. Triples
   Tobias Risthaus        : Range-separated hybrids, TD-DFT gradient, RPA, STAB
   Michael Roemelt        : Original ROCIS implementation
   Masaaki Saitow         : Open-shell DLPNO-CCSD energy and density
   Barbara Sandhoefer     : DKH picture change effects
   Avijit Sen             : IP-ROCIS
   Kantharuban Sivalingam : CASSCF convergence, NEVPT2, FIC-MRCI
   Bernardo de Souza      : ESD, SOC TD-DFT
   Georgi Stoychev        : AutoAux, RI-MP2 NMR, DLPNO-MP2 response
   Willem Van den Heuvel  : Paramagnetic NMR
   Boris Wezisla          : Elementary symmetry handling
   Frank Wennmohs         : Technical directorship


 We gratefully acknowledge several colleagues who have allowed us to
 interface, adapt or use parts of their codes:
   Stefan Grimme, W. Hujo, H. Kruse, P. Pracht,  : VdW corrections, initial TS optimization,
                  C. Bannwarth, S. Ehlert          DFT functionals, gCP, sTDA/sTD-DF
   Ed Valeev, F. Pavosevic, A. Kumar             : LibInt (2-el integral package), F12 methods
   Garnet Chan, S. Sharma, J. Yang, R. Olivares  : DMRG
   Ulf Ekstrom                                   : XCFun DFT Library
   Mihaly Kallay                                 : mrcc  (arbitrary order and MRCC methods)
   Jiri Pittner, Ondrej Demel                    : Mk-CCSD
   Frank Weinhold                                : gennbo (NPA and NBO analysis)
   Christopher J. Cramer and Donald G. Truhlar   : smd solvation model
   Lars Goerigk                                  : TD-DFT with DH, B97 family of functionals
   V. Asgeirsson, H. Jonsson                     : NEB implementation
   FAccTs GmbH                                   : IRC, NEB, NEB-TS, DLPNO-Multilevel, CI-OPT
                                                   MM, QMMM, 2- and 3-layer-ONIOM, Crystal-QMMM,
                                                   LR-CPCM, SF, NACMEs, symmetry and pop. for TD-DFT,
                                                   nearIR, NL-DFT gradient (VV10), updates on ESD,
                                                   ML-optimized integration grids
   S Lehtola, MJT Oliveira, MAL Marques          : LibXC Library
   Liviu Ungur et al                             : ANISO software


 Your calculation uses the libint2 library for the computation of 2-el integrals
 For citations please refer to: http://libint.valeyev.net

 Your ORCA version has been built with support for libXC version: 5.1.0
 For citations please refer to: https://tddft.org/programs/libxc/

 This ORCA versions uses:
   CBLAS   interface :  Fast vector & matrix operations
   LAPACKE interface :  Fast linear algebra routines
   SCALAPACK package :  Parallel linear algebra routines
   Shared memory     :  Shared parallel matrices
   BLAS/LAPACK       :  OpenBLAS 0.3.15  USE64BITINT DYNAMIC_ARCH NO_AFFINITY Haswell SINGLE_THREADED
        Core in use  :  Haswell
   Copyright (c) 2011-2014, The OpenBLAS Project



Information: The global flag for chemical shieldings has been found
             ==>> will calculate the chemical shieldings for all atoms in the system

================================================================================

----- Orbital basis set information -----
Your calculation utilizes the basis: def2-mTZVP
----- AuxJ basis set information -----
Your calculation utilizes the auxiliary basis: def2/J
   F. Weigend, Phys. Chem. Chem. Phys. 8, 1057 (2006).

================================================================================
                                        WARNINGS
                       Please study these warnings very carefully!
================================================================================


INFO   : the flag for use of the SHARK integral package has been found!

================================================================================
                                       INPUT FILE
================================================================================
NAME = NHC_NICS/NHC_NICS.inp
|  1> %pal nprocs 24 end
|  2> ! TightSCF NMR TPSS def2-mTZVP RI
|  3> 
|  4> * xyz 0 1
|  5> C        0.930949822      0.720888444      0.000011566
|  6> C       -0.358784752      1.121483134      0.000011566
|  7> N       -1.115610617     -0.030073247      0.000069499
|  8> C       -0.358784752     -1.155485532      0.000011566
|  9> N        0.902230300     -0.656812799     -0.000104196
| 10> H        1.845245136      1.291752231      0.000096329
| 11> H       -0.788709437      2.109959755      0.000112040
| 12> C       -2.558043419     -0.044720427     -0.000391271
| 13> H       -2.950223735      0.455513637      0.887659415
| 14> H       -2.949614555      0.453788529     -0.889687386
| 15> H       -2.880576549     -1.083417755      0.000464457
| 16> C        2.083405197     -1.484947285     -0.001505979
| 17> H        2.687881506     -1.294238155     -0.890858608
| 18> H        2.690084156     -1.294256748      0.886347711
| 19> H        1.762520770     -2.524077929     -0.001222429
| 20> H:        0.000000000      0.000000000      1.000000000
| 21> H:        0.000000000      0.000000000      0.000000000
| 22> H:        0.000000000      0.000000000      -1.000000000
| 23> *
| 24> 
| 25>                          ****END OF INPUT****
================================================================================

                       ****************************
                       * Single Point Calculation *
                       ****************************

---------------------------------
CARTESIAN COORDINATES (ANGSTROEM)
---------------------------------
  C      0.930950    0.720888    0.000012
  C     -0.358785    1.121483    0.000012
  N     -1.115611   -0.030073    0.000069
  C     -0.358785   -1.155486    0.000012
  N      0.902230   -0.656813   -0.000104
  H      1.845245    1.291752    0.000096
  H     -0.788709    2.109960    0.000112
  C     -2.558043   -0.044720   -0.000391
  H     -2.950224    0.455514    0.887659
  H     -2.949615    0.453789   -0.889687
  H     -2.880577   -1.083418    0.000464
  C      2.083405   -1.484947   -0.001506
  H      2.687882   -1.294238   -0.890859
  H      2.690084   -1.294257    0.886348
  H      1.762521   -2.524078   -0.001222
  H      0.000000    0.000000    1.000000
  H      0.000000    0.000000    0.000000
  H      0.000000    0.000000   -1.000000

----------------------------
CARTESIAN COORDINATES (A.U.)
----------------------------
  NO LB      ZA    FRAG     MASS         X           Y           Z
   0 C     6.0000    0    12.011    1.759240    1.362282    0.000022
   1 C     6.0000    0    12.011   -0.678005    2.119296    0.000022
   2 N     7.0000    0    14.007   -2.108199   -0.056830    0.000131
   3 C     6.0000    0    12.011   -0.678005   -2.183551    0.000022
   4 N     7.0000    0    14.007    1.704968   -1.241196   -0.000197
   5 H     1.0000    0     1.008    3.487008    2.441058    0.000182
   6 H     1.0000    0     1.008   -1.490445    3.987246    0.000212
   7 C     6.0000    0    12.011   -4.834002   -0.084509   -0.000739
   8 H     1.0000    0     1.008   -5.575115    0.860796    1.677433
   9 H     1.0000    0     1.008   -5.573964    0.857536   -1.681266
  10 H     1.0000    0     1.008   -5.443501   -2.047363    0.000878
  11 C     6.0000    0    12.011    3.937065   -2.806144   -0.002846
  12 H     1.0000    0     1.008    5.079360   -2.445756   -1.683479
  13 H     1.0000    0     1.008    5.083522   -2.445791    1.674954
  14 H     1.0000    0     1.008    3.330682   -4.769816   -0.002310
  15 H     0.0000    0     0.000    0.000000    0.000000    1.889726
  16 H     0.0000    0     0.000    0.000000    0.000000    0.000000
  17 H     0.0000    0     0.000    0.000000    0.000000   -1.889726

--------------------------------
INTERNAL COORDINATES (ANGSTROEM)
--------------------------------
 C      0   0   0     0.000000000000     0.00000000     0.00000000
 C      1   0   0     1.350515226507     0.00000000     0.00000000
 N      2   1   0     1.377994010114   106.05879576     0.00000000
 C      3   2   1     1.356222033635   112.76593828     0.00000000
 N      4   3   2     1.356035939571   102.34385489     0.00000000
 H      1   2   3     1.077878189637   130.76542429   180.00845556
 H      2   1   3     1.077924522001   130.76090774   179.99044257
 C      3   2   1     1.442507241048   123.89550386   180.02297361
 H      8   3   2     1.092095938986   110.74311332   299.56710718
 H      8   3   2     1.092101970475   110.74165233    60.51460589
 H      8   3   2     1.087621483519   107.83222272   180.03804402
 C      5   4   3     1.442561204664   123.38878544   180.06202278
 H     12   5   4     1.092112484645   110.71664160   119.47928782
 H     12   5   4     1.092110990258   110.72156484   240.37738586
 H     12   5   4     1.087547420204   107.87395525   359.93551107
 H      3   2   1     1.498450017778    64.80847850    47.51550903
 H     16   3   2     1.000000000000    48.14022199   294.93044501
 H     17  16   3     1.000000000000   180.00000000     0.00000000

---------------------------
INTERNAL COORDINATES (A.U.)
---------------------------
 C      0   0   0     0.000000000000     0.00000000     0.00000000
 C      1   0   0     2.552103917789     0.00000000     0.00000000
 N      2   1   0     2.604031293300   106.05879576     0.00000000
 C      3   2   1     2.562888220361   112.76593828     0.00000000
 N      4   3   2     2.562536553544   102.34385489     0.00000000
 H      1   2   3     2.036894584141   130.76542429   180.00845556
 H      2   1   3     2.036982139620   130.76090774   179.99044257
 C      3   2   1     2.725943631779   123.89550386   180.02297361
 H      8   3   2     2.063762236650   110.74311332   299.56710718
 H      8   3   2     2.063773634513   110.74165233    60.51460589
 H      8   3   2     2.055306741220   107.83222272   180.03804402
 C      5   4   3     2.726045608234   123.38878544   180.06202278
 H     12   5   4     2.063793503415   110.71664160   119.47928782
 H     12   5   4     2.063790679432   110.72156484   240.37738586
 H     12   5   4     2.055166781837   107.87395525   359.93551107
 H      3   2   1     2.831660158970    64.80847850    47.51550903
 H     16   3   2     1.889726133921    48.14022199   294.93044501
 H     17  16   3     1.889726133921   180.00000000     0.00000000

---------------------
BASIS SET INFORMATION
---------------------
There are 3 groups of distinct atoms

 Group   1 Type C   : 11s6p1d contracted to 5s3p1d pattern {62111/411/1}
 Group   2 Type N   : 11s6p1d contracted to 5s3p1d pattern {62111/411/1}
 Group   3 Type H   : 5s contracted to 3s pattern {311}

Atom   0C    basis set group =>   1
Atom   1C    basis set group =>   1
Atom   2N    basis set group =>   2
Atom   3C    basis set group =>   1
Atom   4N    basis set group =>   2
Atom   5H    basis set group =>   3
Atom   6H    basis set group =>   3
Atom   7C    basis set group =>   1
Atom   8H    basis set group =>   3
Atom   9H    basis set group =>   3
Atom  10H    basis set group =>   3
Atom  11C    basis set group =>   1
Atom  12H    basis set group =>   3
Atom  13H    basis set group =>   3
Atom  14H    basis set group =>   3
Atom  15H    basis set group =>   3
Atom  16H    basis set group =>   3
Atom  17H    basis set group =>   3
---------------------------------
AUXILIARY/J BASIS SET INFORMATION
---------------------------------
There are 3 groups of distinct atoms

 Group   1 Type C   : 12s5p4d2f1g contracted to 6s4p3d1f1g pattern {711111/2111/211/2/1}
 Group   2 Type N   : 12s5p4d2f1g contracted to 6s4p3d1f1g pattern {711111/2111/211/2/1}
 Group   3 Type H   : 5s2p1d contracted to 3s1p1d pattern {311/2/1}

Atom   0C    basis set group =>   1
Atom   1C    basis set group =>   1
Atom   2N    basis set group =>   2
Atom   3C    basis set group =>   1
Atom   4N    basis set group =>   2
Atom   5H    basis set group =>   3
Atom   6H    basis set group =>   3
Atom   7C    basis set group =>   1
Atom   8H    basis set group =>   3
Atom   9H    basis set group =>   3
Atom  10H    basis set group =>   3
Atom  11C    basis set group =>   1
Atom  12H    basis set group =>   3
Atom  13H    basis set group =>   3
Atom  14H    basis set group =>   3
Atom  15H    basis set group =>   3
Atom  16H    basis set group =>   3
Atom  17H    basis set group =>   3


           ************************************************************
           *        Program running with 24 parallel MPI-processes    *
           *              working on a common directory               *
           ************************************************************
------------------------------------------------------------------------------
                           ORCA GTO INTEGRAL CALCULATION
                           -- RI-GTO INTEGRALS CHOSEN --
------------------------------------------------------------------------------
------------------------------------------------------------------------------
                   ___                                                        
                  /   \      - P O W E R E D   B Y -                         
                 /     \                                                     
                 |  |  |   _    _      __       _____    __    __             
                 |  |  |  | |  | |    /  \     |  _  \  |  |  /  |          
                  \  \/   | |  | |   /    \    | | | |  |  | /  /          
                 / \  \   | |__| |  /  /\  \   | |_| |  |  |/  /          
                |  |  |   |  __  | /  /__\  \  |    /   |      \           
                |  |  |   | |  | | |   __   |  |    \   |  |\   \          
                \     /   | |  | | |  |  |  |  | |\  \  |  | \   \       
                 \___/    |_|  |_| |__|  |__|  |_| \__\ |__|  \__/        
                                                                              
                      - O R C A' S   B I G   F R I E N D -                    
                                      &                                       
                       - I N T E G R A L  F E E D E R -                       
                                                                              
 v1 FN, 2020, v2 2021                                                         
------------------------------------------------------------------------------


Reading SHARK input file NHC_NICS/NHC_NICS.SHARKINP.tmp ... ok
----------------------
SHARK INTEGRAL PACKAGE
----------------------

Number of atoms                             ...     18
Number of basis functions                   ...    166
Number of shells                            ...     96
Maximum angular momentum                    ...      2
Integral batch strategy                     ... SHARK/LIBINT Hybrid
RI-J (if used) integral strategy            ... SPLIT-RIJ (Revised 2003 algorithm where possible)
Printlevel                                  ...      1
Contraction scheme used                     ... SEGMENTED contraction
Coulomb Range Separation                    ... NOT USED
Exchange Range Separation                   ... NOT USED
Finite Nucleus Model                        ... NOT USED
Auxiliary Coulomb fitting basis             ... AVAILABLE
   # of basis functions in Aux-J            ...    464
   # of shells in Aux-J                     ...    160
   Maximum angular momentum in Aux-J        ...      4
Auxiliary J/K fitting basis                 ... NOT available
Auxiliary Correlation fitting basis         ... NOT available
Auxiliary 'external' fitting basis          ... NOT available
Integral threshold                          ...     2.500000e-11
Primitive cut-off                           ...     2.500000e-12
Primitive pair pre-selection threshold      ...     2.500000e-12

Calculating pre-screening integrals         ... done (  0.0 sec) Dimension = 96
Organizing shell pair data                  ... done (  0.0 sec)
Shell pair information
Total number of shell pairs                 ...      4656
Shell pairs after pre-screening             ...      4396
Total number of primitive shell pairs       ...     16658
Primitive shell pairs kept                  ...     11667
          la=0 lb=0:   2150 shell pairs
          la=1 lb=0:   1390 shell pairs
          la=1 lb=1:    230 shell pairs
          la=2 lb=0:    454 shell pairs
          la=2 lb=1:    145 shell pairs
          la=2 lb=2:     27 shell pairs

Calculating one electron integrals          ... done (  0.0 sec)
Calculating RI/J V-Matrix + Cholesky decomp.... done (  0.1 sec)
Calculating Nuclear repulsion               ... done (  0.0 sec) ENN=    296.771553335824 Eh

SHARK setup successfully completed in   0.4 seconds

Maximum memory used throughout the entire GTOINT-calculation: 13.7 MB


           ************************************************************
           *        Program running with 24 parallel MPI-processes    *
           *              working on a common directory               *
           ************************************************************
-------------------------------------------------------------------------------
                                 ORCA SCF
-------------------------------------------------------------------------------

------------
SCF SETTINGS
------------
Hamiltonian:
 Density Functional     Method          .... DFT(GTOs)
 Exchange Functional    Exchange        .... TPSS
 Correlation Functional Correlation     .... TPSS
 LDA part of GGA corr.  LDAOpt          .... PW91-LDA
 Gradients option       PostSCFGGA      .... off
   Density functional embedding theory  .... OFF
   NL short-range parameter             ....  5.000000
 RI-approximation to the Coulomb term is turned on
   Number of AuxJ basis functions       .... 464


General Settings:
 Integral files         IntName         .... NHC_NICS/NHC_NICS
 Hartree-Fock type      HFTyp           .... RHF
 Total Charge           Charge          ....    0
 Multiplicity           Mult            ....    1
 Number of Electrons    NEL             ....   52
 Basis Dimension        Dim             ....  166
 Nuclear Repulsion      ENuc            ....    296.7715533358 Eh

Convergence Acceleration:
 DIIS                   CNVDIIS         .... on
   Start iteration      DIISMaxIt       ....    12
   Startup error        DIISStart       ....  0.200000
   # of expansion vecs  DIISMaxEq       ....     5
   Bias factor          DIISBfac        ....   1.050
   Max. coefficient     DIISMaxC        ....  10.000
 Trust-Rad. Augm. Hess. CNVTRAH         .... auto
   Auto Start mean grad. ratio tolernc. ....  1.125000
   Auto Start start iteration           ....    20
   Auto Start num. interpolation iter.  ....    10
   Max. Number of Micro iterations      ....    16
   Max. Number of Macro iterations      .... Maxiter - #DIIS iter
   Number of Davidson start vectors     ....     2
   Converg. threshold I  (grad. norm)   ....   1.000e-05
   Converg. threshold II (energy diff.) ....   1.000e-08
   Grad. Scal. Fac. for Micro threshold ....   0.100
   Minimum threshold for Micro iter.    ....   0.010
   NR start threshold (gradient norm)   ....   0.001
   Initial trust radius                 ....   0.400
   Minimum AH scaling param. (alpha)    ....   1.000
   Maximum AH scaling param. (alpha)    .... 1000.000
   Orbital update algorithm             .... Taylor
   White noise on init. David. guess    .... on
   Maximum white noise                  ....   0.010
   Quad. conv. algorithm                .... NR
 SOSCF                  CNVSOSCF        .... on
   Start iteration      SOSCFMaxIt      ....   150
   Startup grad/error   SOSCFStart      ....  0.003300
 Level Shifting         CNVShift        .... on
   Level shift para.    LevelShift      ....    0.2500
   Turn off err/grad.   ShiftErr        ....    0.0010
 Zerner damping         CNVZerner       .... off
 Static damping         CNVDamp         .... on
   Fraction old density DampFac         ....    0.7000
   Max. Damping (<1)    DampMax         ....    0.9800
   Min. Damping (>=0)   DampMin         ....    0.0000
   Turn off err/grad.   DampErr         ....    0.1000
 Fernandez-Rico         CNVRico         .... off

SCF Procedure:
 Maximum # iterations   MaxIter         ....   125
 SCF integral mode      SCFMode         .... Direct
   Integral package                     .... SHARK and LIBINT hybrid scheme
 Reset frequency        DirectResetFreq ....    20
 Integral Threshold     Thresh          ....  2.500e-11 Eh
 Primitive CutOff       TCut            ....  2.500e-12 Eh

Convergence Tolerance:
 Convergence Check Mode ConvCheckMode   .... Total+1el-Energy
 Convergence forced     ConvForced      .... 0
 Energy Change          TolE            ....  1.000e-08 Eh
 1-El. energy change                    ....  1.000e-05 Eh
 Orbital Gradient       TolG            ....  1.000e-05
 Orbital Rotation angle TolX            ....  1.000e-05
 DIIS Error             TolErr          ....  5.000e-07


Diagonalization of the overlap matrix:
Smallest eigenvalue                        ... 1.986e-05
Time for diagonalization                   ...    0.023 sec
Threshold for overlap eigenvalues          ... 1.000e-08
Number of eigenvalues below threshold      ... 0
Time for construction of square roots      ...    0.016 sec
Total time needed                          ...    0.041 sec

Time for model grid setup =    0.119 sec

------------------------------
INITIAL GUESS: MODEL POTENTIAL
------------------------------
Loading Hartree-Fock densities                     ... done
Calculating cut-offs                               ... done
Initializing the effective Hamiltonian             ... done
Setting up the integral package (SHARK)            ... done
Starting the Coulomb interaction                   ... done (   0.1 sec)
Reading the grid                                   ... done
Mapping shells                                     ... done
Starting the XC term evaluation                    ... done (   0.0 sec)
  promolecular density results
     # of electrons  =     51.998918639
     EX              =    -41.043209296
     EC              =     -1.723090353
     EX+EC           =    -42.766299649
Transforming the Hamiltonian                       ... done (   0.0 sec)
Diagonalizing the Hamiltonian                      ... done (   0.0 sec)
Back transforming the eigenvectors                 ... done (   0.0 sec)
Now organizing SCF variables                       ... done
                      ------------------
                      INITIAL GUESS DONE (   0.3 sec)
                      ------------------
-------------------
DFT GRID GENERATION
-------------------

General Integration Accuracy     IntAcc      ... 4.388
Radial Grid Type                 RadialGrid  ... OptM3 with GC (2021)
Angular Grid (max. ang.)         AngularGrid ... 4 (Lebedev-302)
Angular grid pruning method      GridPruning ... 4 (adaptive)
Weight generation scheme         WeightScheme... Becke
Basis function cutoff            BFCut       ... 1.0000e-11
Integration weight cutoff        WCut        ... 1.0000e-14
Angular grids for H and He will be reduced by one unit
Partially contracted basis set               ... off
Rotationally invariant grid construction     ... off

Total number of grid points                  ...    76599
Total number of batches                      ...     1208
Average number of points per batch           ...       63
Average number of grid points per atom       ...     4256
Time for grid setup =    0.439 sec

--------------
SCF ITERATIONS
--------------
ITER       Energy         Delta-E        Max-DP      RMS-DP      [F,P]     Damp
               ***  Starting incremental Fock matrix formation  ***
  0   -304.8040115957   0.000000000000 0.10942125  0.00235708  0.1378300 0.7000
  1   -304.8670117728  -0.063000177085 0.15008238  0.00235238  0.0721582 0.7000
                               ***Turning on DIIS***
  2   -304.8924939360  -0.025482163189 0.35705864  0.00538227  0.0267114 0.0000
  3   -304.9256004789  -0.033106542853 0.08719223  0.00143178  0.0419603 0.0000
  4   -304.9376152394  -0.012014760592 0.09393858  0.00087759  0.0078667 0.0000
  5   -304.9381904220  -0.000575182583 0.04344014  0.00039684  0.0037264 0.0000
                      *** Initiating the SOSCF procedure ***
                           *** Shutting down DIIS ***
                      *** Re-Reading the Fockian *** 
                      *** Removing any level shift *** 
ITER      Energy       Delta-E        Grad      Rot      Max-DP    RMS-DP
  6   -304.93824802  -0.0000575954  0.000269  0.000269  0.032768  0.000301
               *** Restarting incremental Fock matrix formation ***
  7   -304.93825037  -0.0000023487  0.000245  0.001124  0.009027  0.000093
  8   -304.93824812   0.0000022480  0.000535  0.000779  0.005495  0.000056
  9   -304.93825105  -0.0000029329  0.000020  0.000049  0.000341  0.000005
 10   -304.93825104   0.0000000087  0.000027  0.000028  0.000062  0.000002
 11   -304.93825107  -0.0000000265  0.000003  0.000009  0.000274  0.000002
 12   -304.93825107   0.0000000013  0.000005  0.000008  0.000198  0.000002
                  ***Gradient check signals convergence***
              ***Rediagonalizing the Fockian in SOSCF/NRSCF***

               *****************************************************
               *                     SUCCESS                       *
               *           SCF CONVERGED AFTER  13 CYCLES          *
               *****************************************************


----------------
TOTAL SCF ENERGY
----------------

Total Energy       :         -304.93825107 Eh           -8297.79166 eV

Components:
Nuclear Repulsion  :          296.77155334 Eh            8075.56452 eV
Electronic Energy  :         -601.70980440 Eh          -16373.35618 eV
One Electron Energy:         -998.38714802 Eh          -27167.49547 eV
Two Electron Energy:          396.67734362 Eh           10794.13928 eV

Virial components:
Potential Energy   :         -608.77908981 Eh          -16565.72122 eV
Kinetic Energy     :          303.84083874 Eh            8267.92956 eV
Virial Ratio       :            2.00361180


DFT components:
N(Alpha)           :       25.999966311112 electrons
N(Beta)            :       25.999966311112 electrons
N(Total)           :       51.999932622223 electrons
E(X)               :      -42.363203371703 Eh       
E(C)               :       -1.725410430065 Eh       
E(XC)              :      -44.088613801769 Eh       
DFET-embed. en.    :        0.000000000000 Eh       

---------------
SCF CONVERGENCE
---------------

  Last Energy change         ...   -6.1414e-10  Tolerance :   1.0000e-08
  Last MAX-Density change    ...    7.0345e-04  Tolerance :   1.0000e-07
  Last RMS-Density change    ...    6.0039e-06  Tolerance :   5.0000e-09
  Last Orbital Gradient      ...    1.3046e-06  Tolerance :   1.0000e-05
  Last Orbital Rotation      ...    4.8050e-06  Tolerance :   1.0000e-05

             **** THE GBW FILE WAS UPDATED (NHC_NICS/NHC_NICS.gbw) ****
             **** DENSITY NHC_NICS/NHC_NICS.scfp WAS UPDATED ****
             **** ENERGY FILE WAS UPDATED (NHC_NICS/NHC_NICS.en.tmp) ****
             **** THE GBW FILE WAS UPDATED (NHC_NICS/NHC_NICS.gbw) ****
             **** DENSITY NHC_NICS/NHC_NICS.scfp WAS UPDATED ****
----------------
ORBITAL ENERGIES
----------------

  NO   OCC          E(Eh)            E(eV) 
   0   2.0000     -14.139464      -384.7544 
   1   2.0000     -14.139436      -384.7536 
   2   2.0000     -10.018367      -272.6136 
   3   2.0000     -10.018332      -272.6127 
   4   2.0000     -10.007533      -272.3188 
   5   2.0000     -10.006951      -272.3030 
   6   2.0000      -9.979300      -271.5506 
   7   2.0000      -0.956500       -26.0277 
   8   2.0000      -0.853704       -23.2305 
   9   2.0000      -0.719283       -19.5727 
  10   2.0000      -0.671143       -18.2627 
  11   2.0000      -0.634609       -17.2686 
  12   2.0000      -0.550658       -14.9842 
  13   2.0000      -0.522109       -14.2073 
  14   2.0000      -0.482002       -13.1160 
  15   2.0000      -0.431028       -11.7289 
  16   2.0000      -0.418631       -11.3915 
  17   2.0000      -0.405868       -11.0442 
  18   2.0000      -0.395966       -10.7748 
  19   2.0000      -0.392341       -10.6761 
  20   2.0000      -0.354038        -9.6339 
  21   2.0000      -0.345512        -9.4019 
  22   2.0000      -0.341207        -9.2847 
  23   2.0000      -0.239396        -6.5143 
  24   2.0000      -0.200397        -5.4531 
  25   2.0000      -0.173703        -4.7267 
  26   0.0000       0.003057         0.0832 
  27   0.0000       0.017940         0.4882 
  28   0.0000       0.034056         0.9267 
  29   0.0000       0.044802         1.2191 
  30   0.0000       0.064272         1.7489 
  31   0.0000       0.084835         2.3085 
  32   0.0000       0.090509         2.4629 
  33   0.0000       0.106492         2.8978 
  34   0.0000       0.106522         2.8986 
  35   0.0000       0.110988         3.0201 
  36   0.0000       0.111777         3.0416 
  37   0.0000       0.113630         3.0920 
  38   0.0000       0.124730         3.3941 
  39   0.0000       0.165022         4.4905 
  40   0.0000       0.165420         4.5013 
  41   0.0000       0.186582         5.0772 
  42   0.0000       0.217178         5.9097 
  43   0.0000       0.222282         6.0486 
  44   0.0000       0.226135         6.1535 
  45   0.0000       0.252572         6.8728 
  46   0.0000       0.256067         6.9679 
  47   0.0000       0.263825         7.1791 
  48   0.0000       0.270825         7.3695 
  49   0.0000       0.279050         7.5933 
  50   0.0000       0.294750         8.0206 
  51   0.0000       0.301602         8.2070 
  52   0.0000       0.302037         8.2189 
  53   0.0000       0.343051         9.3349 
  54   0.0000       0.346529         9.4295 
  55   0.0000       0.370256        10.0752 
  56   0.0000       0.374971        10.2035 
  57   0.0000       0.381283        10.3752 
  58   0.0000       0.386042        10.5047 
  59   0.0000       0.388480        10.5711 
  60   0.0000       0.401520        10.9259 
  61   0.0000       0.432755        11.7759 
  62   0.0000       0.436752        11.8846 
  63   0.0000       0.436766        11.8850 
  64   0.0000       0.438435        11.9304 
  65   0.0000       0.449538        12.2326 
  66   0.0000       0.480362        13.0713 
  67   0.0000       0.489173        13.3111 
  68   0.0000       0.529983        14.4216 
  69   0.0000       0.533370        14.5137 
  70   0.0000       0.539619        14.6838 
  71   0.0000       0.542843        14.7715 
  72   0.0000       0.548032        14.9127 
  73   0.0000       0.585149        15.9227 
  74   0.0000       0.609959        16.5978 
  75   0.0000       0.626531        17.0488 
  76   0.0000       0.650335        17.6965 
  77   0.0000       0.686544        18.6818 
  78   0.0000       0.699226        19.0269 
  79   0.0000       0.735260        20.0074 
  80   0.0000       0.751912        20.4606 
  81   0.0000       0.847580        23.0638 
  82   0.0000       0.917427        24.9645 
  83   0.0000       0.999287        27.1920 
  84   0.0000       1.135619        30.9018 
  85   0.0000       1.287915        35.0460 
  86   0.0000       1.293133        35.1879 
  87   0.0000       1.336625        36.3714 
  88   0.0000       1.338034        36.4098 
  89   0.0000       1.411337        38.4044 
  90   0.0000       1.428558        38.8730 
  91   0.0000       1.430537        38.9269 
  92   0.0000       1.447829        39.3974 
  93   0.0000       1.450473        39.4694 
  94   0.0000       1.456131        39.6233 
  95   0.0000       1.461013        39.7562 
  96   0.0000       1.493117        40.6298 
  97   0.0000       1.500673        40.8354 
  98   0.0000       1.514890        41.2223 
  99   0.0000       1.522142        41.4196 
 100   0.0000       1.530087        41.6358 
 101   0.0000       1.539690        41.8971 
 102   0.0000       1.539980        41.9050 
 103   0.0000       1.555968        42.3400 
 104   0.0000       1.604998        43.6742 
 105   0.0000       1.622876        44.1607 
 106   0.0000       1.639091        44.6019 
 107   0.0000       1.658461        45.1290 
 108   0.0000       1.659590        45.1597 
 109   0.0000       1.700609        46.2759 
 110   0.0000       1.719301        46.7846 
 111   0.0000       1.756405        47.7942 
 112   0.0000       1.779750        48.4295 
 113   0.0000       1.784892        48.5694 
 114   0.0000       1.791737        48.7556 
 115   0.0000       1.802284        49.0426 
 116   0.0000       1.806857        49.1671 
 117   0.0000       1.833786        49.8998 
 118   0.0000       1.863287        50.7026 
 119   0.0000       1.941321        52.8260 
 120   0.0000       2.023473        55.0615 
 121   0.0000       2.142376        58.2970 
 122   0.0000       2.198829        59.8332 
 123   0.0000       2.218524        60.3691 
 124   0.0000       2.224549        60.5330 
 125   0.0000       2.231173        60.7133 
 126   0.0000       2.279257        62.0217 
 127   0.0000       2.318720        63.0956 
 128   0.0000       2.365866        64.3785 
 129   0.0000       2.415772        65.7365 
 130   0.0000       2.425406        65.9987 
 131   0.0000       2.445595        66.5480 
 132   0.0000       2.475745        67.3685 
 133   0.0000       2.493324        67.8468 
 134   0.0000       2.511169        68.3324 
 135   0.0000       2.527900        68.7877 
 136   0.0000       2.546426        69.2918 
 137   0.0000       2.557890        69.6037 
 138   0.0000       2.578584        70.1668 
 139   0.0000       2.600207        70.7552 
 140   0.0000       2.693392        73.2909 
 141   0.0000       2.697436        73.4010 
 142   0.0000       2.830748        77.0286 
 143   0.0000       2.831529        77.0498 
 144   0.0000       2.860911        77.8493 
 145   0.0000       2.888321        78.5952 
 146   0.0000       3.014671        82.0334 
 147   0.0000       3.064630        83.3928 
 148   0.0000       3.177404        86.4616 
 149   0.0000       3.191466        86.8442 
 150   0.0000       3.377170        91.8975 
 151   0.0000       3.394617        92.3722 
 152   0.0000       3.416982        92.9808 
 153   0.0000       3.499354        95.2223 
 154   0.0000       3.672169        99.9248 
 155   0.0000       3.672716        99.9397 
 156   0.0000       4.211463       114.5997 
 157   0.0000       4.565987       124.2468 
 158   0.0000       6.130628       166.8229 
 159   0.0000      21.740536       591.5901 
 160   0.0000      21.801428       593.2470 
 161   0.0000      21.806046       593.3727 
 162   0.0000      21.981050       598.1348 
 163   0.0000      22.072847       600.6327 
 164   0.0000      31.930306       868.8678 
 165   0.0000      32.086089       873.1069 

                    ********************************
                    * MULLIKEN POPULATION ANALYSIS *
                    ********************************

-----------------------
MULLIKEN ATOMIC CHARGES
-----------------------
   0 C :   -0.065964
   1 C :   -0.065985
   2 N :    0.056781
   3 C :   -0.129813
   4 N :    0.056596
   5 H :    0.189429
   6 H :    0.189290
   7 C :   -0.440129
   8 H :    0.161443
   9 H :    0.161484
  10 H :    0.196101
  11 C :   -0.440067
  12 H :    0.161521
  13 H :    0.161485
  14 H :    0.196075
  15 H :   -0.019055
  16 H :   -0.350142
  17 H :   -0.019047
Sum of atomic charges:   -0.0000000

--------------------------------
MULLIKEN REDUCED ORBITAL CHARGES
--------------------------------
  0 C s       :     3.109289  s :     3.109289
      pz      :     1.102437  p :     2.906164
      px      :     0.996017
      py      :     0.807710
      dz2     :     0.004269  d :     0.050511
      dxz     :     0.005335
      dyz     :     0.009256
      dx2y2   :     0.017661
      dxy     :     0.013990
  1 C s       :     3.109535  s :     3.109535
      pz      :     1.102304  p :     2.905940
      px      :     0.922654
      py      :     0.880982
      dz2     :     0.004268  d :     0.050511
      dxz     :     0.009156
      dyz     :     0.005438
      dx2y2   :     0.013748
      dxy     :     0.017901
  2 N s       :     3.314813  s :     3.314813
      pz      :     1.481587  p :     3.573934
      px      :     0.975327
      py      :     1.117020
      dz2     :     0.003433  d :     0.054472
      dxz     :     0.006814
      dyz     :     0.008688
      dx2y2   :     0.018036
      dxy     :     0.017501
  3 C s       :     3.747622  s :     3.747622
      pz      :     0.684489  p :     2.322538
      px      :     0.667693
      py      :     0.970356
      dz2     :     0.006402  d :     0.059653
      dxz     :     0.010260
      dyz     :     0.008965
      dx2y2   :     0.013556
      dxy     :     0.020470
  4 N s       :     3.314909  s :     3.314909
      pz      :     1.481593  p :     3.574012
      px      :     1.040152
      py      :     1.052267
      dz2     :     0.003433  d :     0.054483
      dxz     :     0.007161
      dyz     :     0.008347
      dx2y2   :     0.018933
      dxy     :     0.016609
  5 H s       :     0.810571  s :     0.810571
  6 H s       :     0.810710  s :     0.810710
  7 C s       :     3.297526  s :     3.297526
      pz      :     1.095587  p :     3.094540
      px      :     0.820365
      py      :     1.178589
      dz2     :     0.008799  d :     0.048063
      dxz     :     0.011882
      dyz     :     0.007380
      dx2y2   :     0.013143
      dxy     :     0.006858
  8 H s       :     0.838557  s :     0.838557
  9 H s       :     0.838516  s :     0.838516
 10 H s       :     0.803899  s :     0.803899
 11 C s       :     3.297508  s :     3.297508
      pz      :     1.095494  p :     3.094502
      px      :     0.926898
      py      :     1.072110
      dz2     :     0.008795  d :     0.048056
      dxz     :     0.016376
      dyz     :     0.002884
      dx2y2   :     0.009167
      dxy     :     0.010834
 12 H s       :     0.838479  s :     0.838479
 13 H s       :     0.838515  s :     0.838515
 14 H s       :     0.803925  s :     0.803925
 15 H s       :     0.019055  s :     0.019055
 16 H s       :     0.350142  s :     0.350142
 17 H s       :     0.019047  s :     0.019047


                     *******************************
                     * LOEWDIN POPULATION ANALYSIS *
                     *******************************

----------------------
LOEWDIN ATOMIC CHARGES
----------------------
   0 C :   -0.033713
   1 C :   -0.033589
   2 N :   -0.021250
   3 C :   -0.040067
   4 N :   -0.021204
   5 H :    0.173400
   6 H :    0.173392
   7 C :   -0.274669
   8 H :    0.148450
   9 H :    0.148458
  10 H :    0.171422
  11 C :   -0.274620
  12 H :    0.148491
  13 H :    0.148480
  14 H :    0.171389
  15 H :   -0.128968
  16 H :   -0.326434
  17 H :   -0.128968

-------------------------------
LOEWDIN REDUCED ORBITAL CHARGES
-------------------------------
  0 C s       :     2.846353  s :     2.846353
      pz      :     1.065111  p :     3.083326
      px      :     1.079806
      py      :     0.938409
      dz2     :     0.008010  d :     0.104035
      dxz     :     0.008158
      dyz     :     0.017055
      dx2y2   :     0.042102
      dxy     :     0.028709
  1 C s       :     2.846352  s :     2.846352
      pz      :     1.064999  p :     3.083197
      px      :     1.039984
      py      :     0.978214
      dz2     :     0.008010  d :     0.104041
      dxz     :     0.017223
      dyz     :     0.007994
      dx2y2   :     0.031232
      dxy     :     0.039581
  2 N s       :     3.050854  s :     3.050854
      pz      :     1.413520  p :     3.860344
      px      :     1.182513
      py      :     1.264311
      dz2     :     0.006216  d :     0.110052
      dxz     :     0.010491
      dyz     :     0.016165
      dx2y2   :     0.040271
      dxy     :     0.036909
  3 C s       :     3.065576  s :     3.065576
      pz      :     0.734110  p :     2.852196
      px      :     0.860546
      py      :     1.257540
      dz2     :     0.015533  d :     0.122295
      dxz     :     0.020092
      dyz     :     0.011371
      dx2y2   :     0.029484
      dxy     :     0.045815
  4 N s       :     3.050812  s :     3.050812
      pz      :     1.413450  p :     3.860314
      px      :     1.234291
      py      :     1.212573
      dz2     :     0.006216  d :     0.110079
      dxz     :     0.011597
      dyz     :     0.015071
      dx2y2   :     0.039661
      dxy     :     0.037535
  5 H s       :     0.826600  s :     0.826600
  6 H s       :     0.826608  s :     0.826608
  7 C s       :     2.959536  s :     2.959536
      pz      :     1.140620  p :     3.230874
      px      :     0.917232
      py      :     1.173022
      dz2     :     0.014330  d :     0.084259
      dxz     :     0.021505
      dyz     :     0.010594
      dx2y2   :     0.025065
      dxy     :     0.012764
  8 H s       :     0.851550  s :     0.851550
  9 H s       :     0.851542  s :     0.851542
 10 H s       :     0.828578  s :     0.828578
 11 C s       :     2.959539  s :     2.959539
      pz      :     1.140623  p :     3.230837
      px      :     1.002125
      py      :     1.088089
      dz2     :     0.014326  d :     0.084245
      dxz     :     0.028040
      dyz     :     0.004052
      dx2y2   :     0.016832
      dxy     :     0.020996
 12 H s       :     0.851509  s :     0.851509
 13 H s       :     0.851520  s :     0.851520
 14 H s       :     0.828611  s :     0.828611
 15 H s       :     0.128968  s :     0.128968
 16 H s       :     0.326434  s :     0.326434
 17 H s       :     0.128968  s :     0.128968


                      *****************************
                      * MAYER POPULATION ANALYSIS *
                      *****************************

  NA   - Mulliken gross atomic population
  ZA   - Total nuclear charge
  QA   - Mulliken gross atomic charge
  VA   - Mayer's total valence
  BVA  - Mayer's bonded valence
  FA   - Mayer's free valence

  ATOM       NA         ZA         QA         VA         BVA        FA
  0 C      6.0660     6.0000    -0.0660     3.7850     3.7850    -0.0000
  1 C      6.0660     6.0000    -0.0660     3.7856     3.7856    -0.0000
  2 N      6.9432     7.0000     0.0568     3.2289     3.2289    -0.0000
  3 C      6.1298     6.0000    -0.1298     2.4282     2.4282    -0.0000
  4 N      6.9434     7.0000     0.0566     3.2289     3.2289     0.0000
  5 H      0.8106     1.0000     0.1894     0.9353     0.9353    -0.0000
  6 H      0.8107     1.0000     0.1893     0.9353     0.9353    -0.0000
  7 C      6.4401     6.0000    -0.4401     3.7263     3.7263    -0.0000
  8 H      0.8386     1.0000     0.1614     0.9392     0.9392    -0.0000
  9 H      0.8385     1.0000     0.1615     0.9391     0.9391    -0.0000
 10 H      0.8039     1.0000     0.1961     0.9689     0.9689     0.0000
 11 C      6.4401     6.0000    -0.4401     3.7266     3.7266    -0.0000
 12 H      0.8385     1.0000     0.1615     0.9391     0.9391    -0.0000
 13 H      0.8385     1.0000     0.1615     0.9391     0.9391    -0.0000
 14 H      0.8039     1.0000     0.1961     0.9688     0.9688     0.0000
 15 H      0.0191     0.0000    -0.0191     0.0384     0.0384    -0.0000
 16 H      0.3501     0.0000    -0.3501     0.6304     0.6304     0.0000
 17 H      0.0190     0.0000    -0.0190     0.0384     0.0384    -0.0000

  Mayer bond orders larger than 0.100000
B(  0-C ,  1-C ) :   1.6276 B(  0-C ,  4-N ) :   1.0415 B(  0-C ,  5-H ) :   0.9277 
B(  0-C , 16-H ) :   0.1841 B(  1-C ,  2-N ) :   1.0415 B(  1-C ,  6-H ) :   0.9279 
B(  1-C , 16-H ) :   0.1844 B(  2-N ,  3-C ) :   1.1975 B(  2-N ,  7-C ) :   0.9015 
B(  2-N , 16-H ) :   0.2771 B(  3-C ,  4-N ) :   1.1978 B(  3-C , 16-H ) :  -0.2675 
B(  4-N , 11-C ) :   0.9015 B(  4-N , 16-H ) :   0.2765 B(  7-C ,  8-H ) :   0.9559 
B(  7-C ,  9-H ) :   0.9559 B(  7-C , 10-H ) :   0.9489 B( 11-C , 12-H ) :   0.9559 
B( 11-C , 13-H ) :   0.9559 B( 11-C , 14-H ) :   0.9489 

-------
TIMINGS
-------

Total SCF time: 0 days 0 hours 0 min 8 sec 

Total time                  ....       8.445 sec
Sum of individual times     ....       7.791 sec  ( 92.3%)

Fock matrix formation       ....       6.597 sec  ( 78.1%)
  Split-RI-J                ....       1.421 sec  ( 21.5% of F)
  XC integration            ....       4.059 sec  ( 61.5% of F)
    Basis function eval.    ....       0.287 sec  (  7.1% of XC)
    Density eval.           ....       0.425 sec  ( 10.5% of XC)
    XC-Functional eval.     ....       0.167 sec  (  4.1% of XC)
    XC-Potential eval.      ....       0.458 sec  ( 11.3% of XC)
Diagonalization             ....       0.162 sec  (  1.9%)
Density matrix formation    ....       0.013 sec  (  0.2%)
Population analysis         ....       0.058 sec  (  0.7%)
Initial guess               ....       0.152 sec  (  1.8%)
Orbital Transformation      ....       0.000 sec  (  0.0%)
Orbital Orthonormalization  ....       0.000 sec  (  0.0%)
DIIS solution               ....       0.131 sec  (  1.5%)
SOSCF solution              ....       0.119 sec  (  1.4%)
Grid generation             ....       0.558 sec  (  6.6%)

Maximum memory used throughout the entire SCF-calculation: 24.4 MB

-------------------------   --------------------
FINAL SINGLE POINT ENERGY      -304.938251068128
-------------------------   --------------------


                            ***************************************
                            *     ORCA property calculations      *
                            ***************************************

                                    ---------------------
                                    Active property flags
                                    ---------------------
   (+) Dipole Moment
   (+) Chemical Shifts
   (+) Nuclear properties (Hyperfine,Quadrupole)


------------------------------------------------------------------------------
                       ORCA ELECTRIC PROPERTIES CALCULATION
------------------------------------------------------------------------------

Dipole Moment Calculation                       ... on
Quadrupole Moment Calculation                   ... off
Polarizability Calculation                      ... off
GBWName                                         ... NHC_NICS/NHC_NICS.gbw
Electron density                                ... NHC_NICS/NHC_NICS.scfp
The origin for moment calculation is the CENTER OF MASS  = (-0.131997, -0.425463 -0.000590)

-------------
DIPOLE MOMENT
-------------
                                X             Y             Z
Electronic contribution:      0.31042       1.00200       0.00366
Nuclear contribution   :     -0.02348      -0.07993      -0.00430
                        -----------------------------------------
Total Dipole Moment    :      0.28694       0.92207      -0.00064
                        -----------------------------------------
Magnitude (a.u.)       :      0.96569
Magnitude (Debye)      :      2.45458



--------------------
Rotational spectrum 
--------------------
 
Rotational constants in cm-1:     0.236876     0.070795     0.055651 
Rotational constants in MHz :  7101.363496  2122.388361  1668.377055 

 Dipole components along the rotational axes: 
x,y,z [a.u.] :    -0.000795     0.965686    -0.000909 
x,y,z [Debye]:    -0.002021     2.454578    -0.002310 

 


           ************************************************************
           *        Program running with 24 parallel MPI-processes    *
           *              working on a common directory               *
           ************************************************************
------------------------------------------------------------------------------
                                ORCA EPR/NMR CALCULATION
------------------------------------------------------------------------------

GBWName                      ... NHC_NICS/NHC_NICS.gbw
Electron density             ... NHC_NICS/NHC_NICS.scfp
Spin density                 ... NHC_NICS/NHC_NICS.scfr
Treatment of gauge           ... GIAO (approximations 1/2el = 0,0)
Tau option for meta-GGA DFT  ... Ad-hoc gauge-invariant
Details of the CP(SCF) procedure:
       Solver   = POPLE   
       MaxIter  =    64   
       Tolerance=    1.000e-04
       Op-0     =   0- 25 =>  26-165
Multiplicity                 ... 1
g-tensor                     ... 0
NMR chemical shifts          ... 1
NMR spin-spin couplings      ... 0
NMR spectrum                 ... 0
Number of nuclei for epr/nmr ... 18
   Nucleus:   0C 
       Hyperfine : Isotope=   13 I=   0.500 P= 134.188
       Quadrupole: Isotope=   13 I=   0.500 Q=   0.000
       Spin-Orbit: Zeff=   3.600
       Nuclear Spin-Spin: Gn=   0.000
       EPRNMR Input: 
       rho(0)=N f(grad)=N a(iso)=N a(dip)=N a(orb)=N sigma(nmr)=Y spin-spin(nmr)=all-N,DSO-N,PSO-N,FC-N,SD-N
   Nucleus:   1C 
       Hyperfine : Isotope=   13 I=   0.500 P= 134.188
       Quadrupole: Isotope=   13 I=   0.500 Q=   0.000
       Spin-Orbit: Zeff=   3.600
       Nuclear Spin-Spin: Gn=   0.000
       EPRNMR Input: 
       rho(0)=N f(grad)=N a(iso)=N a(dip)=N a(orb)=N sigma(nmr)=Y spin-spin(nmr)=all-N,DSO-N,PSO-N,FC-N,SD-N
   Nucleus:   2N 
       Hyperfine : Isotope=   14 I=   1.000 P=  38.571
       Quadrupole: Isotope=   14 I=   1.000 Q=   0.020
       Spin-Orbit: Zeff=   4.550
       Nuclear Spin-Spin: Gn=   0.000
       EPRNMR Input: 
       rho(0)=N f(grad)=N a(iso)=N a(dip)=N a(orb)=N sigma(nmr)=Y spin-spin(nmr)=all-N,DSO-N,PSO-N,FC-N,SD-N
   Nucleus:   3C 
       Hyperfine : Isotope=   13 I=   0.500 P= 134.188
       Quadrupole: Isotope=   13 I=   0.500 Q=   0.000
       Spin-Orbit: Zeff=   3.600
       Nuclear Spin-Spin: Gn=   0.000
       EPRNMR Input: 
       rho(0)=N f(grad)=N a(iso)=N a(dip)=N a(orb)=N sigma(nmr)=Y spin-spin(nmr)=all-N,DSO-N,PSO-N,FC-N,SD-N
   Nucleus:   4N 
       Hyperfine : Isotope=   14 I=   1.000 P=  38.571
       Quadrupole: Isotope=   14 I=   1.000 Q=   0.020
       Spin-Orbit: Zeff=   4.550
       Nuclear Spin-Spin: Gn=   0.000
       EPRNMR Input: 
       rho(0)=N f(grad)=N a(iso)=N a(dip)=N a(orb)=N sigma(nmr)=Y spin-spin(nmr)=all-N,DSO-N,PSO-N,FC-N,SD-N
   Nucleus:   5H 
       Hyperfine : Isotope=    1 I=   0.500 P= 533.552
       Quadrupole: Isotope=    2 I=   1.000 Q=   0.003
       Spin-Orbit: Zeff=   1.000
       Nuclear Spin-Spin: Gn=   0.000
       EPRNMR Input: 
       rho(0)=N f(grad)=N a(iso)=N a(dip)=N a(orb)=N sigma(nmr)=Y spin-spin(nmr)=all-N,DSO-N,PSO-N,FC-N,SD-N
   Nucleus:   6H 
       Hyperfine : Isotope=    1 I=   0.500 P= 533.552
       Quadrupole: Isotope=    2 I=   1.000 Q=   0.003
       Spin-Orbit: Zeff=   1.000
       Nuclear Spin-Spin: Gn=   0.000
       EPRNMR Input: 
       rho(0)=N f(grad)=N a(iso)=N a(dip)=N a(orb)=N sigma(nmr)=Y spin-spin(nmr)=all-N,DSO-N,PSO-N,FC-N,SD-N
   Nucleus:   7C 
       Hyperfine : Isotope=   13 I=   0.500 P= 134.188
       Quadrupole: Isotope=   13 I=   0.500 Q=   0.000
       Spin-Orbit: Zeff=   3.600
       Nuclear Spin-Spin: Gn=   0.000
       EPRNMR Input: 
       rho(0)=N f(grad)=N a(iso)=N a(dip)=N a(orb)=N sigma(nmr)=Y spin-spin(nmr)=all-N,DSO-N,PSO-N,FC-N,SD-N
   Nucleus:   8H 
       Hyperfine : Isotope=    1 I=   0.500 P= 533.552
       Quadrupole: Isotope=    2 I=   1.000 Q=   0.003
       Spin-Orbit: Zeff=   1.000
       Nuclear Spin-Spin: Gn=   0.000
       EPRNMR Input: 
       rho(0)=N f(grad)=N a(iso)=N a(dip)=N a(orb)=N sigma(nmr)=Y spin-spin(nmr)=all-N,DSO-N,PSO-N,FC-N,SD-N
   Nucleus:   9H 
       Hyperfine : Isotope=    1 I=   0.500 P= 533.552
       Quadrupole: Isotope=    2 I=   1.000 Q=   0.003
       Spin-Orbit: Zeff=   1.000
       Nuclear Spin-Spin: Gn=   0.000
       EPRNMR Input: 
       rho(0)=N f(grad)=N a(iso)=N a(dip)=N a(orb)=N sigma(nmr)=Y spin-spin(nmr)=all-N,DSO-N,PSO-N,FC-N,SD-N
   Nucleus:  10H 
       Hyperfine : Isotope=    1 I=   0.500 P= 533.552
       Quadrupole: Isotope=    2 I=   1.000 Q=   0.003
       Spin-Orbit: Zeff=   1.000
       Nuclear Spin-Spin: Gn=   0.000
       EPRNMR Input: 
       rho(0)=N f(grad)=N a(iso)=N a(dip)=N a(orb)=N sigma(nmr)=Y spin-spin(nmr)=all-N,DSO-N,PSO-N,FC-N,SD-N
   Nucleus:  11C 
       Hyperfine : Isotope=   13 I=   0.500 P= 134.188
       Quadrupole: Isotope=   13 I=   0.500 Q=   0.000
       Spin-Orbit: Zeff=   3.600
       Nuclear Spin-Spin: Gn=   0.000
       EPRNMR Input: 
       rho(0)=N f(grad)=N a(iso)=N a(dip)=N a(orb)=N sigma(nmr)=Y spin-spin(nmr)=all-N,DSO-N,PSO-N,FC-N,SD-N
   Nucleus:  12H 
       Hyperfine : Isotope=    1 I=   0.500 P= 533.552
       Quadrupole: Isotope=    2 I=   1.000 Q=   0.003
       Spin-Orbit: Zeff=   1.000
       Nuclear Spin-Spin: Gn=   0.000
       EPRNMR Input: 
       rho(0)=N f(grad)=N a(iso)=N a(dip)=N a(orb)=N sigma(nmr)=Y spin-spin(nmr)=all-N,DSO-N,PSO-N,FC-N,SD-N
   Nucleus:  13H 
       Hyperfine : Isotope=    1 I=   0.500 P= 533.552
       Quadrupole: Isotope=    2 I=   1.000 Q=   0.003
       Spin-Orbit: Zeff=   1.000
       Nuclear Spin-Spin: Gn=   0.000
       EPRNMR Input: 
       rho(0)=N f(grad)=N a(iso)=N a(dip)=N a(orb)=N sigma(nmr)=Y spin-spin(nmr)=all-N,DSO-N,PSO-N,FC-N,SD-N
   Nucleus:  14H 
       Hyperfine : Isotope=    1 I=   0.500 P= 533.552
       Quadrupole: Isotope=    2 I=   1.000 Q=   0.003
       Spin-Orbit: Zeff=   1.000
       Nuclear Spin-Spin: Gn=   0.000
       EPRNMR Input: 
       rho(0)=N f(grad)=N a(iso)=N a(dip)=N a(orb)=N sigma(nmr)=Y spin-spin(nmr)=all-N,DSO-N,PSO-N,FC-N,SD-N
   Nucleus:  15H 
       Hyperfine : Isotope=    1 I=   0.500 P= 533.552
       Quadrupole: Isotope=    2 I=   1.000 Q=   0.003
       Spin-Orbit: Zeff=   1.000
       Nuclear Spin-Spin: Gn=   0.000
       EPRNMR Input: 
       rho(0)=N f(grad)=N a(iso)=N a(dip)=N a(orb)=N sigma(nmr)=Y spin-spin(nmr)=all-N,DSO-N,PSO-N,FC-N,SD-N
   Nucleus:  16H 
       Hyperfine : Isotope=    1 I=   0.500 P= 533.552
       Quadrupole: Isotope=    2 I=   1.000 Q=   0.003
       Spin-Orbit: Zeff=   1.000
       Nuclear Spin-Spin: Gn=   0.000
       EPRNMR Input: 
       rho(0)=N f(grad)=N a(iso)=N a(dip)=N a(orb)=N sigma(nmr)=Y spin-spin(nmr)=all-N,DSO-N,PSO-N,FC-N,SD-N
   Nucleus:  17H 
       Hyperfine : Isotope=    1 I=   0.500 P= 533.552
       Quadrupole: Isotope=    2 I=   1.000 Q=   0.003
       Spin-Orbit: Zeff=   1.000
       Nuclear Spin-Spin: Gn=   0.000
       EPRNMR Input: 
       rho(0)=N f(grad)=N a(iso)=N a(dip)=N a(orb)=N sigma(nmr)=Y spin-spin(nmr)=all-N,DSO-N,PSO-N,FC-N,SD-N
Forming RHS of the CP-SCF equations         ... 
Calculating right hand sides for GIAO treatment        ... 
  Entering RightHandSide GIAO. ScalHFX=    0.0000 NeedHFX=0
     -> 1-electron GIAO integrals will be done analytically
     -> RI used in SCF. Same chosen for GIAO calculation.
     Making grid for GIAO integrations   ...

GRID GIAO
---------

General Integration Accuracy     IntAcc      ... 4.388
Radial Grid Type                 RadialGrid  ... OptM3 with GC (2021)
Angular Grid (max. ang.)         AngularGrid ... 4 (Lebedev-302)
Angular grid pruning method      GridPruning ... 4 (adaptive)
Weight generation scheme         WeightScheme... Becke
Basis function cutoff            BFCut       ... 1.0000e-11
Integration weight cutoff        WCut        ... 1.0000e-14
Angular grids for H and He will be reduced by one unit
Partially contracted basis set               ... off
Rotationally invariant grid construction     ... off

Total number of grid points                  ...    76599
Total number of batches                      ...     1208
Average number of points per batch           ...       63
Average number of grid points per atom       ...     4256

  One-electron GIAO integrals (SHARK)     ... done
  Calculating G(B)[P]                     ... (RI-J: SHARK-ok) (copy J to G-ok) => dG/dB done
  DFT XC-terms                            ... done
  Extracting occupied and virtual blocks  ... 
  Operator  0  NO=  26 NV= 140 
  Transforming and RHS contribution       ... done
  Adding eps_i * S(B)_ai terms            ... done

  GIAO profiling information: 
    Total GIAO time               ...       1.5 sec
       GIAO 1-electron integrals  ...       0.0 sec (  0.9%)
       GIAO RI-J                  ...       0.2 sec ( 15.7%)
       GIAO XC-terms              ...       0.8 sec ( 56.1%)
       Right hand side assembly   ...       0.0 sec (  0.3%)

  GIAO right hand side done


Forming final perturbed densities           ... done
Transforming perturbed density to AO basis  ... done

Magnetic field perturbation calculated in  1.518 sec

---------------
CHEMICAL SHIFTS
---------------

Note: using conversion factor for au to ppm alpha^2/2 =   26.625677252 
GIAO: Analytic para- and diamagnetic shielding integrals (SHARK)       ...done
 --------------
 Nucleus   0C :
 --------------

Diamagnetic contribution to the shielding tensor (ppm) : 
           265.523         -0.330         0.001
             1.540        271.140         0.003
            -0.011          0.002       249.227

Paramagnetic contribution to the shielding tensor (ppm): 
          -215.140        -31.639        -0.011
           -51.041       -233.677        -0.023
             0.053          0.007      -112.737

Total shielding tensor (ppm): 
            50.383        -31.969        -0.010
           -49.501         37.463        -0.020
             0.042          0.009       136.490


 Diagonalized sT*s matrix:
 
 sDSO           269.873          266.789          249.227  iso=     261.963
 sPSO          -266.397         -182.420         -112.737  iso=    -187.185
        ---------------  ---------------  ---------------
 Total            3.476           84.369          136.490  iso=      74.779

 --------------
 Nucleus   1C :
 --------------

Diamagnetic contribution to the shielding tensor (ppm) : 
           266.747          3.330         0.001
             1.459        269.879         0.000
            -0.003          0.009       249.188

Paramagnetic contribution to the shielding tensor (ppm): 
          -182.509         -3.533        -0.007
            15.824       -266.316        -0.001
            -0.002          0.003      -112.634

Total shielding tensor (ppm): 
            84.238         -0.204        -0.006
            17.283          3.563        -0.001
            -0.006          0.013       136.554


 Diagonalized sT*s matrix:
 
 sDSO           269.850          266.776          249.188  iso=     261.938
 sPSO          -266.387         -182.438         -112.634  iso=    -187.153
        ---------------  ---------------  ---------------
 Total            3.463           84.338          136.554  iso=      74.785

 --------------
 Nucleus   2N :
 --------------

Diamagnetic contribution to the shielding tensor (ppm) : 
           336.271          3.147         0.010
             7.889        323.365        -0.000
             0.024          0.004       299.210

Paramagnetic contribution to the shielding tensor (ppm): 
          -379.754        -54.058        -0.046
           -19.206       -232.266         0.003
            -0.021         -0.014      -141.756

Total shielding tensor (ppm): 
           -43.483        -50.911        -0.037
           -11.317         91.099         0.003
             0.003         -0.010       157.454


 Diagonalized sT*s matrix:
 
 sDSO           334.631          325.005          299.210  iso=     319.615
 sPSO          -367.826         -244.194         -141.756  iso=    -251.259
        ---------------  ---------------  ---------------
 Total          -33.195           80.811          157.454  iso=      68.357

 --------------
 Nucleus   3C :
 --------------

Diamagnetic contribution to the shielding tensor (ppm) : 
           265.857         -3.965        -0.006
            -3.972        254.310        -0.002
             0.002          0.014       228.734

Paramagnetic contribution to the shielding tensor (ppm): 
          -434.841         59.298         0.027
            59.259       -262.403        -0.005
            -0.032         -0.047      -114.316

Total shielding tensor (ppm): 
          -168.984         55.334         0.021
            55.287         -8.093        -0.007
            -0.030         -0.033       114.418


 Diagonalized sT*s matrix:
 
 sDSO           253.078          228.734          267.089  iso=     249.634
 sPSO          -243.991         -114.316         -453.253  iso=    -270.520
        ---------------  ---------------  ---------------
 Total            9.086          114.418         -186.164  iso=     -20.886

 --------------
 Nucleus   4N :
 --------------

Diamagnetic contribution to the shielding tensor (ppm) : 
           326.988         -5.620        -0.026
           -10.377        332.650         0.022
            -0.045          0.035       299.222

Paramagnetic contribution to the shielding tensor (ppm): 
          -298.309         99.335         0.129
            64.583       -313.709        -0.099
             0.064         -0.055      -141.726

Total shielding tensor (ppm): 
            28.679         93.715         0.103
            54.206         18.941        -0.077
             0.019         -0.020       157.496


 Diagonalized sT*s matrix:
 
 sDSO           334.637          325.002          299.222  iso=     319.620
 sPSO          -367.870         -244.148         -141.726  iso=    -251.248
        ---------------  ---------------  ---------------
 Total          -33.233           80.854          157.496  iso=      68.372

 --------------
 Nucleus   5H :
 --------------

Diamagnetic contribution to the shielding tensor (ppm) : 
            38.913          7.903         0.000
            10.824         32.613         0.001
            -0.001          0.000        22.033

Paramagnetic contribution to the shielding tensor (ppm): 
           -12.470         -8.171        -0.001
           -10.583         -4.651         0.000
             0.003          0.002         0.942

Total shielding tensor (ppm): 
            26.443         -0.268        -0.001
             0.241         27.962         0.001
             0.002          0.002        22.975


 Diagonalized sT*s matrix:
 
 sDSO            22.033           38.992           32.533  iso=      31.186
 sPSO             0.942          -12.550           -4.572  iso=      -5.393
        ---------------  ---------------  ---------------
 Total           22.975           26.443           27.962  iso=      25.793

 --------------
 Nucleus   6H :
 --------------

Diamagnetic contribution to the shielding tensor (ppm) : 
            28.146         -4.836         0.000
            -7.750         43.373        -0.000
             0.000          0.003        22.026

Paramagnetic contribution to the shielding tensor (ppm): 
            -1.207          5.802        -0.001
             8.207        -15.912         0.000
            -0.001         -0.001         0.949

Total shielding tensor (ppm): 
            26.940          0.966        -0.000
             0.457         27.462         0.000
            -0.000          0.002        22.975


 Diagonalized sT*s matrix:
 
 sDSO            22.026           38.958           32.562  iso=      31.182
 sPSO             0.949          -12.515           -4.604  iso=      -5.390
        ---------------  ---------------  ---------------
 Total           22.975           26.443           27.958  iso=      25.792

 --------------
 Nucleus   7C :
 --------------

Diamagnetic contribution to the shielding tensor (ppm) : 
           261.553          0.176         0.004
            -2.664        238.884         0.006
             0.013          0.013       246.182

Paramagnetic contribution to the shielding tensor (ppm): 
           -69.395          4.063         0.000
             1.793       -103.607        -0.006
             0.013         -0.016      -119.885

Total shielding tensor (ppm): 
           192.158          4.240         0.004
            -0.871        135.277        -0.000
             0.026         -0.003       126.297


 Diagonalized sT*s matrix:
 
 sDSO           246.182          239.009          261.429  iso=     248.873
 sPSO          -119.885         -103.778          -69.224  iso=     -97.629
        ---------------  ---------------  ---------------
 Total          126.297          135.231          192.205  iso=     151.244

 --------------
 Nucleus   8H :
 --------------

Diamagnetic contribution to the shielding tensor (ppm) : 
            31.837         -2.813        -6.400
            -3.218         24.998         4.953
            -7.294          4.775        32.495

Paramagnetic contribution to the shielding tensor (ppm): 
            -0.107          1.020         3.210
             2.471          1.945        -3.150
             3.431         -2.232        -4.081

Total shielding tensor (ppm): 
            31.730         -1.793        -3.190
            -0.747         26.943         1.804
            -3.863          2.543        28.414


 Diagonalized sT*s matrix:
 
 sDSO            23.222           25.896           40.212  iso=      29.777
 sPSO             1.897            1.441           -5.580  iso=      -0.748
        ---------------  ---------------  ---------------
 Total           25.119           27.336           34.632  iso=      29.029

 --------------
 Nucleus   9H :
 --------------

Diamagnetic contribution to the shielding tensor (ppm) : 
            31.828         -2.798         6.406
            -3.201         24.980        -4.941
             7.302         -4.763        32.523

Paramagnetic contribution to the shielding tensor (ppm): 
            -0.102          1.012        -3.212
             2.458          1.953         3.142
            -3.430          2.225        -4.094

Total shielding tensor (ppm): 
            31.726         -1.786         3.194
            -0.743         26.933        -1.799
             3.872         -2.538        28.429


 Diagonalized sT*s matrix:
 
 sDSO            23.222           25.896           40.214  iso=      29.777
 sPSO             1.900            1.435           -5.579  iso=      -0.748
        ---------------  ---------------  ---------------
 Total           25.122           27.331           34.635  iso=      29.029

 --------------
 Nucleus  10H :
 --------------

Diamagnetic contribution to the shielding tensor (ppm) : 
            30.691          6.814        -0.005
             5.357         34.444        -0.011
            -0.002         -0.008        22.553

Paramagnetic contribution to the shielding tensor (ppm): 
            -0.508         -3.570         0.003
            -4.088         -3.729         0.008
            -0.000          0.004         1.469

Total shielding tensor (ppm): 
            30.182          3.244        -0.003
             1.268         30.715        -0.004
            -0.002         -0.004        24.022


 Diagonalized sT*s matrix:
 
 sDSO            22.553           26.270           38.865  iso=      29.229
 sPSO             1.469            1.908           -6.145  iso=      -0.923
        ---------------  ---------------  ---------------
 Total           24.022           28.178           32.719  iso=      28.306

 --------------
 Nucleus  11C :
 --------------

Diamagnetic contribution to the shielding tensor (ppm) : 
           255.476        -11.562        -0.011
            -8.674        244.968         0.008
            -0.016          0.024       246.181

Paramagnetic contribution to the shielding tensor (ppm): 
           -83.082        -18.136        -0.027
           -15.891        -89.921         0.017
            -0.033          0.014      -119.883

Total shielding tensor (ppm): 
           172.394        -29.698        -0.038
           -24.565        155.047         0.026
            -0.049          0.038       126.298


 Diagonalized sT*s matrix:
 
 sDSO           246.181          239.016          261.428  iso=     248.875
 sPSO          -119.883         -103.776          -69.226  iso=     -97.629
        ---------------  ---------------  ---------------
 Total          126.298          135.240          192.202  iso=     151.246

 --------------
 Nucleus  12H :
 --------------

Diamagnetic contribution to the shielding tensor (ppm) : 
            32.431         -2.312        -8.078
            -1.903         24.376        -0.458
            -8.718          0.199        32.529

Paramagnetic contribution to the shielding tensor (ppm): 
            -1.065          1.056         4.425
            -0.396          2.914         0.778
             4.085         -0.104        -4.098

Total shielding tensor (ppm): 
            31.367         -1.256        -3.652
            -2.299         27.290         0.319
            -4.633          0.096        28.430


 Diagonalized sT*s matrix:
 
 sDSO            23.224           25.898           40.214  iso=      29.779
 sPSO             1.895            1.437           -5.581  iso=      -0.750
        ---------------  ---------------  ---------------
 Total           25.119           27.335           34.633  iso=      29.029

 --------------
 Nucleus  13H :
 --------------

Diamagnetic contribution to the shielding tensor (ppm) : 
            32.468         -2.311         8.079
            -1.902         24.374         0.464
             8.714         -0.192        32.488

Paramagnetic contribution to the shielding tensor (ppm): 
            -1.085          1.058        -4.429
            -0.397          2.918        -0.780
            -4.093          0.103        -4.080

Total shielding tensor (ppm): 
            31.384         -1.253         3.650
            -2.300         27.292        -0.316
             4.621         -0.088        28.409


 Diagonalized sT*s matrix:
 
 sDSO            23.225           25.894           40.211  iso=      29.777
 sPSO             1.893            1.443           -5.582  iso=      -0.749
        ---------------  ---------------  ---------------
 Total           25.118           27.337           34.629  iso=      29.028

 --------------
 Nucleus  14H :
 --------------

Diamagnetic contribution to the shielding tensor (ppm) : 
            26.208         -1.172        -0.004
             0.286         38.929        -0.001
            -0.004          0.004        22.549

Paramagnetic contribution to the shielding tensor (ppm): 
             2.040         -0.385         0.002
             0.136         -6.270         0.001
            -0.000         -0.000         1.484

Total shielding tensor (ppm): 
            28.248         -1.557        -0.001
             0.422         32.659        -0.000
            -0.004          0.004        24.033


 Diagonalized sT*s matrix:
 
 sDSO            22.549           26.264           38.873  iso=      29.229
 sPSO             1.484            1.914           -6.144  iso=      -0.915
        ---------------  ---------------  ---------------
 Total           24.033           28.178           32.729  iso=      28.313

 --------------
 Nucleus  15H :
 --------------

Diamagnetic contribution to the shielding tensor (ppm) : 
             5.744         -0.579        -0.521
            -0.580          4.057        -1.679
            -0.268         -0.860        26.131

Paramagnetic contribution to the shielding tensor (ppm): 
            -2.959         -0.324         0.339
            -0.324         -3.915         1.090
             0.245          0.777        -0.703

Total shielding tensor (ppm): 
             2.785         -0.902        -0.182
            -0.904          0.143        -0.590
            -0.023         -0.083        25.427


 Diagonalized sT*s matrix:
 
 sDSO             3.869            5.924           26.139  iso=      11.977
 sPSO            -4.008           -2.859           -0.710  iso=      -2.525
        ---------------  ---------------  ---------------
 Total           -0.139            3.065           25.429  iso=       9.452

 --------------
 Nucleus  16H :
 --------------

Diamagnetic contribution to the shielding tensor (ppm) : 
            37.334         -2.128        -0.001
            -2.125         31.132         0.003
            -0.005          0.009        34.639

Paramagnetic contribution to the shielding tensor (ppm): 
           -16.375         -1.575        -0.003
            -1.579        -20.967         0.003
             0.003         -0.007       -28.593

Total shielding tensor (ppm): 
            20.959         -3.703        -0.005
            -3.705         10.166         0.006
            -0.002          0.002         6.046


 Diagonalized sT*s matrix:
 
 sDSO            34.639           30.473           37.993  iso=      34.368
 sPSO           -28.593          -21.456          -15.885  iso=     -21.978
        ---------------  ---------------  ---------------
 Total            6.046            9.017           22.107  iso=      12.390

 --------------
 Nucleus  17H :
 --------------

Diamagnetic contribution to the shielding tensor (ppm) : 
             5.745         -0.580         0.525
            -0.581          4.056         1.682
             0.268          0.864        26.108

Paramagnetic contribution to the shielding tensor (ppm): 
            -2.958         -0.330        -0.341
            -0.329         -3.914        -1.090
            -0.242         -0.779        -0.682

Total shielding tensor (ppm): 
             2.787         -0.910         0.184
            -0.910          0.142         0.592
             0.026          0.085        25.426


 Diagonalized sT*s matrix:
 
 sDSO             3.867            5.926           26.117  iso=      11.970
 sPSO            -4.010           -2.856           -0.689  iso=      -2.518
        ---------------  ---------------  ---------------
 Total           -0.143            3.070           25.428  iso=       9.452



--------------------------------
CHEMICAL SHIELDING SUMMARY (ppm)
--------------------------------


  Nucleus  Element    Isotropic     Anisotropy
  -------  -------  ------------   ------------
      0       C           74.779         92.567 
      1       C           74.785         92.653 
      2       N           68.357        133.646 
      3       C          -20.886       -247.916 
      4       N           68.372        133.686 
      5       H           25.793          3.253 
      6       H           25.792          3.249 
      7       C          151.244         61.440 
      8       H           29.029          8.405 
      9       H           29.029          8.408 
     10       H           28.306          6.619 
     11       C          151.246         61.433 
     12       H           29.029          8.405 
     13       H           29.028          8.402 
     14       H           28.313          6.624 
     15       H            9.452         23.966 
     16       H           12.390         14.576 
     17       H            9.452         23.965 



Maximum memory used throughout the entire EPRNMR-calculation: 20.7 MB

Timings for individual modules:

Sum of individual times         ...       13.286 sec (=   0.221 min)
GTO integral calculation        ...        1.585 sec (=   0.026 min)  11.9 %
SCF iterations                  ...        9.189 sec (=   0.153 min)  69.2 %
EPR/NMR calculation             ...        2.512 sec (=   0.042 min)  18.9 %
                             ****ORCA TERMINATED NORMALLY****
TOTAL RUN TIME: 0 days 0 hours 0 minutes 15 seconds 418 msec
