
                                 *****************
                                 * O   R   C   A *
                                 *****************

                                            #,                                       
                                            ###                                      
                                            ####                                     
                                            #####                                    
                                            ######                                   
                                           ########,                                 
                                     ,,################,,,,,                         
                               ,,#################################,,                 
                          ,,##########################################,,             
                       ,#########################################, ''#####,          
                    ,#############################################,,   '####,        
                  ,##################################################,,,,####,       
                ,###########''''           ''''###############################       
              ,#####''   ,,,,##########,,,,          '''####'''          '####       
            ,##' ,,,,###########################,,,                        '##       
           ' ,,###''''                  '''############,,,                           
         ,,##''                                '''############,,,,        ,,,,,,###''
      ,#''                                            '''#######################'''  
     '                                                          ''''####''''         
             ,#######,   #######,   ,#######,      ##                                
            ,#'     '#,  ##    ##  ,#'     '#,    #''#        ######   ,####,        
            ##       ##  ##   ,#'  ##            #'  '#       #        #'  '#        
            ##       ##  #######   ##           ,######,      #####,   #    #        
            '#,     ,#'  ##    ##  '#,     ,#' ,#      #,         ##   #,  ,#        
             '#######'   ##     ##  '#######'  #'      '#     #####' # '####'        



                  #######################################################
                  #                        -***-                        #
                  #          Department of theory and spectroscopy      #
                  #    Directorship and core code : Frank Neese         #
                  #        Max Planck Institute fuer Kohlenforschung    #
                  #                Kaiser Wilhelm Platz 1               #
                  #                 D-45470 Muelheim/Ruhr               #
                  #                      Germany                        #
                  #                                                     #
                  #                  All rights reserved                #
                  #                        -***-                        #
                  #######################################################


                         Program Version 5.0.3 -  RELEASE  -


 With contributions from (in alphabetic order):
   Daniel Aravena         : Magnetic Suceptibility
   Michael Atanasov       : Ab Initio Ligand Field Theory (pilot matlab implementation)
   Alexander A. Auer      : GIAO ZORA, VPT2 properties, NMR spectrum
   Ute Becker             : Parallelization
   Giovanni Bistoni       : ED, misc. LED, open-shell LED, HFLD
   Martin Brehm           : Molecular dynamics
   Dmytro Bykov           : SCF Hessian
   Vijay G. Chilkuri      : MRCI spin determinant printing, contributions to CSF-ICE
   Dipayan Datta          : RHF DLPNO-CCSD density
   Achintya Kumar Dutta   : EOM-CC, STEOM-CC
   Dmitry Ganyushin       : Spin-Orbit,Spin-Spin,Magnetic field MRCI
   Miquel Garcia          : C-PCM and meta-GGA Hessian, CC/C-PCM, Gaussian charge scheme
   Yang Guo               : DLPNO-NEVPT2, F12-NEVPT2, CIM, IAO-localization
   Andreas Hansen         : Spin unrestricted coupled pair/coupled cluster methods
   Benjamin Helmich-Paris : MC-RPA, TRAH-SCF, COSX integrals
   Lee Huntington         : MR-EOM, pCC
   Robert Izsak           : Overlap fitted RIJCOSX, COSX-SCS-MP3, EOM
   Marcus Kettner         : VPT2
   Christian Kollmar      : KDIIS, OOCD, Brueckner-CCSD(T), CCSD density, CASPT2, CASPT2-K
   Simone Kossmann        : Meta GGA functionals, TD-DFT gradient, OOMP2, MP2 Hessian
   Martin Krupicka        : Initial AUTO-CI
   Lucas Lang             : DCDCAS
   Marvin Lechner         : AUTO-CI (C++ implementation), FIC-MRCC
   Dagmar Lenk            : GEPOL surface, SMD
   Dimitrios Liakos       : Extrapolation schemes; Compound Job, initial MDCI parallelization
   Dimitrios Manganas     : Further ROCIS development; embedding schemes
   Dimitrios Pantazis     : SARC Basis sets
   Anastasios Papadopoulos: AUTO-CI, single reference methods and gradients
   Taras Petrenko         : DFT Hessian,TD-DFT gradient, ASA, ECA, R-Raman, ABS, FL, XAS/XES, NRVS
   Peter Pinski           : DLPNO-MP2, DLPNO-MP2 Gradient
   Christoph Reimann      : Effective Core Potentials
   Marius Retegan         : Local ZFS, SOC
   Christoph Riplinger    : Optimizer, TS searches, QM/MM, DLPNO-CCSD(T), (RO)-DLPNO pert. Triples
   Tobias Risthaus        : Range-separated hybrids, TD-DFT gradient, RPA, STAB
   Michael Roemelt        : Original ROCIS implementation
   Masaaki Saitow         : Open-shell DLPNO-CCSD energy and density
   Barbara Sandhoefer     : DKH picture change effects
   Avijit Sen             : IP-ROCIS
   Kantharuban Sivalingam : CASSCF convergence, NEVPT2, FIC-MRCI
   Bernardo de Souza      : ESD, SOC TD-DFT
   Georgi Stoychev        : AutoAux, RI-MP2 NMR, DLPNO-MP2 response
   Willem Van den Heuvel  : Paramagnetic NMR
   Boris Wezisla          : Elementary symmetry handling
   Frank Wennmohs         : Technical directorship


 We gratefully acknowledge several colleagues who have allowed us to
 interface, adapt or use parts of their codes:
   Stefan Grimme, W. Hujo, H. Kruse, P. Pracht,  : VdW corrections, initial TS optimization,
                  C. Bannwarth, S. Ehlert          DFT functionals, gCP, sTDA/sTD-DF
   Ed Valeev, F. Pavosevic, A. Kumar             : LibInt (2-el integral package), F12 methods
   Garnet Chan, S. Sharma, J. Yang, R. Olivares  : DMRG
   Ulf Ekstrom                                   : XCFun DFT Library
   Mihaly Kallay                                 : mrcc  (arbitrary order and MRCC methods)
   Jiri Pittner, Ondrej Demel                    : Mk-CCSD
   Frank Weinhold                                : gennbo (NPA and NBO analysis)
   Christopher J. Cramer and Donald G. Truhlar   : smd solvation model
   Lars Goerigk                                  : TD-DFT with DH, B97 family of functionals
   V. Asgeirsson, H. Jonsson                     : NEB implementation
   FAccTs GmbH                                   : IRC, NEB, NEB-TS, DLPNO-Multilevel, CI-OPT
                                                   MM, QMMM, 2- and 3-layer-ONIOM, Crystal-QMMM,
                                                   LR-CPCM, SF, NACMEs, symmetry and pop. for TD-DFT,
                                                   nearIR, NL-DFT gradient (VV10), updates on ESD,
                                                   ML-optimized integration grids
   S Lehtola, MJT Oliveira, MAL Marques          : LibXC Library
   Liviu Ungur et al                             : ANISO software


 Your calculation uses the libint2 library for the computation of 2-el integrals
 For citations please refer to: http://libint.valeyev.net

 Your ORCA version has been built with support for libXC version: 5.1.0
 For citations please refer to: https://tddft.org/programs/libxc/

 This ORCA versions uses:
   CBLAS   interface :  Fast vector & matrix operations
   LAPACKE interface :  Fast linear algebra routines
   SCALAPACK package :  Parallel linear algebra routines
   Shared memory     :  Shared parallel matrices
   BLAS/LAPACK       :  OpenBLAS 0.3.15  USE64BITINT DYNAMIC_ARCH NO_AFFINITY Haswell SINGLE_THREADED
        Core in use  :  Haswell
   Copyright (c) 2011-2014, The OpenBLAS Project


Your calculation utilizes the atom-pairwise dispersion correction
based on tight binding partial charges (D4)
Cite in your paper:
E.Caldeweyher, C.Bannwarth, S.Grimme, J.Chem.Phys., (2017), 147, 034112.
E.Caldeweyher, S.Ehlert, A.Hansen, H.Neugebauer, S.Grimme, J.Chem.Phys., (2018), in progress.
   

================================================================================

----- Orbital basis set information -----
Your calculation utilizes the basis: def2-TZVP
   F. Weigend and R. Ahlrichs, Phys. Chem. Chem. Phys. 7, 3297 (2005).

----- AuxJ basis set information -----
Your calculation utilizes the auxiliary basis: def2/J
   F. Weigend, Phys. Chem. Chem. Phys. 8, 1057 (2006).

================================================================================
                                        WARNINGS
                       Please study these warnings very carefully!
================================================================================


WARNING: Geometry Optimization
  ===> : Switching off AutoStart
         For restart on a previous wavefunction, please use MOREAD

INFO   : the flag for use of the SHARK integral package has been found!

================================================================================
                                       INPUT FILE
================================================================================
NAME = S-NHC.inp
|  1> ! PBE0 def2-TZVP D4 CPCM(Toluene) Freq OPT
|  2> %maxcore 3000
|  3> %freq temp 433.15 end
|  4> 
|  5> * xyz 0 1
|  6> C       -1.064001486      0.592853527     -0.664297931
|  7> C       -1.064001486     -0.623039763      0.160732501
|  8> N       -1.064001486     -0.277444393      1.464543065
|  9> C       -1.064001486      1.224388523      1.574910400
| 10> N       -1.064001486      1.676719177      0.138567811
| 11> H       -1.064001486      0.597467324     -1.748847924
| 12> H       -1.064001486     -1.632552753     -0.235693404
| 13> C       -1.064001486     -1.216011379      2.595910385
| 14> H       -2.084693486     -1.477633207      2.897324244
| 15> H       -0.545941486     -2.147667416      2.341472951
| 16> H       -0.561369486     -0.787032742      3.470237025
| 17> C       -1.064001486      3.074808348     -0.315576077
| 18> H       -0.043309486      3.451556975     -0.447321161
| 19> H       -1.582061486      3.182597517     -1.275317122
| 20> H       -1.566633486      3.728771965      0.406089588
| 21> **                         ****END OF INPUT****
================================================================================

                       *****************************
                       * Geometry Optimization Run *
                       *****************************

Geometry optimization settings:
Update method            Update   .... BFGS
Choice of coordinates    CoordSys .... Z-matrix Internals
Initial Hessian          InHess   .... Almoef's Model

Convergence Tolerances:
Energy Change            TolE     ....  5.0000e-06 Eh
Max. Gradient            TolMAXG  ....  3.0000e-04 Eh/bohr
RMS Gradient             TolRMSG  ....  1.0000e-04 Eh/bohr
Max. Displacement        TolMAXD  ....  4.0000e-03 bohr
RMS Displacement         TolRMSD  ....  2.0000e-03 bohr
Strict Convergence                ....  False
------------------------------------------------------------------------------
                        ORCA OPTIMIZATION COORDINATE SETUP
------------------------------------------------------------------------------

The optimization will be done in new redundant internal coordinates
Making redundant internal coordinates   ...  (new redundants) done
Evaluating the initial hessian          ...  (Almloef) done
Evaluating the coordinates              ...  done
Calculating the B-matrix                .... done
Calculating the G-matrix                .... done
Diagonalizing the G-matrix              .... done
The first mode is                       ....   29
The number of degrees of freedom        ....   39

    -----------------------------------------------------------------
                    Redundant Internal Coordinates


    -----------------------------------------------------------------
         Definition                    Initial Value    Approx d2E/dq
    -----------------------------------------------------------------
      1. B(C   1,C   0)                  1.4694         0.466763   
      2. B(N   2,C   1)                  1.3488         0.650954   
      3. B(C   3,N   2)                  1.5059         0.365588   
      4. B(N   4,C   3)                  1.5059         0.365588   
      5. B(N   4,C   0)                  1.3488         0.650954   
      6. B(H   5,C   0)                  1.0846         0.367369   
      7. B(H   6,C   1)                  1.0846         0.367369   
      8. B(C   7,N   2)                  1.4700         0.417100   
      9. B(H   8,C   7)                  1.0960         0.352313   
     10. B(H   9,C   7)                  1.0960         0.352314   
     11. B(H  10,C   7)                  1.0960         0.352313   
     12. B(C  11,N   4)                  1.4700         0.417100   
     13. B(H  12,C  11)                  1.0960         0.352313   
     14. B(H  13,C  11)                  1.0960         0.352314   
     15. B(H  14,C  11)                  1.0960         0.352313   
     16. A(N   4,C   0,H   5)          126.2852         0.354839   
     17. A(C   1,C   0,N   4)          109.3127         0.413486   
     18. A(C   1,C   0,H   5)          124.4021         0.337606   
     19. A(C   0,C   1,N   2)          109.3127         0.413486   
     20. A(N   2,C   1,H   6)          126.2852         0.354839   
     21. A(C   0,C   1,H   6)          124.4021         0.337606   
     22. A(C   1,N   2,C   3)          109.0488         0.393504   
     23. A(C   1,N   2,C   7)          125.4756         0.402726   
     24. A(C   3,N   2,C   7)          125.4756         0.364321   
     25. A(N   2,C   3,N   4)          103.2772         0.356228   
     26. A(C   0,N   4,C   3)          109.0488         0.393504   
     27. A(C   3,N   4,C  11)          125.4756         0.364321   
     28. A(C   0,N   4,C  11)          125.4756         0.402726   
     29. A(N   2,C   7,H  10)          111.3513         0.327096   
     30. A(H   8,C   7,H   9)          107.5275         0.288852   
     31. A(N   2,C   7,H   9)          111.3513         0.327096   
     32. A(N   2,C   7,H   8)          111.3513         0.327096   
     33. A(H   9,C   7,H  10)          107.5274         0.288852   
     34. A(H   8,C   7,H  10)          107.5274         0.288852   
     35. A(H  13,C  11,H  14)          107.5274         0.288852   
     36. A(H  12,C  11,H  14)          107.5274         0.288852   
     37. A(N   4,C  11,H  14)          111.3513         0.327096   
     38. A(H  12,C  11,H  13)          107.5275         0.288852   
     39. A(N   4,C  11,H  13)          111.3513         0.327096   
     40. A(N   4,C  11,H  12)          111.3513         0.327096   
     41. D(H   6,C   1,C   0,H   5)      0.0000         0.014837   
     42. D(H   6,C   1,C   0,N   4)    180.0000         0.014837   
     43. D(N   2,C   1,C   0,N   4)      0.0000         0.014837   
     44. D(N   2,C   1,C   0,H   5)    180.0000         0.014837   
     45. D(C   3,N   2,C   1,H   6)    180.0000         0.034590   
     46. D(C   7,N   2,C   1,C   0)    180.0000         0.034590   
     47. D(C   7,N   2,C   1,H   6)      0.0000         0.034590   
     48. D(C   3,N   2,C   1,C   0)      0.0000         0.034590   
     49. D(N   4,C   3,N   2,C   7)    180.0000         0.009740   
     50. D(N   4,C   3,N   2,C   1)      0.0000         0.009740   
     51. D(C  11,N   4,C   0,H   5)      0.0000         0.034590   
     52. D(C  11,N   4,C   0,C   1)    180.0000         0.034590   
     53. D(C   3,N   4,C   0,H   5)    180.0000         0.034590   
     54. D(C   0,N   4,C   3,N   2)      0.0000         0.009740   
     55. D(C   3,N   4,C   0,C   1)      0.0000         0.034590   
     56. D(C  11,N   4,C   3,N   2)    180.0000         0.009740   
     57. D(H  10,C   7,N   2,C   3)    -29.5000         0.014836   
     58. D(H  10,C   7,N   2,C   1)    150.5000         0.014836   
     59. D(H   9,C   7,N   2,C   3)   -149.5000         0.014836   
     60. D(H   9,C   7,N   2,C   1)     30.5000         0.014836   
     61. D(H   8,C   7,N   2,C   3)     90.5000         0.014836   
     62. D(H   8,C   7,N   2,C   1)    -89.5000         0.014836   
     63. D(H  14,C  11,N   4,C   3)    -29.5000         0.014836   
     64. D(H  14,C  11,N   4,C   0)    150.5000         0.014836   
     65. D(H  13,C  11,N   4,C   3)   -149.5000         0.014836   
     66. D(H  13,C  11,N   4,C   0)     30.5000         0.014836   
     67. D(H  12,C  11,N   4,C   3)     90.5000         0.014836   
     68. D(H  12,C  11,N   4,C   0)    -89.5000         0.014836   
    -----------------------------------------------------------------

Number of atoms                         .... 15
Number of degrees of freedom            .... 68

         *************************************************************
         *                GEOMETRY OPTIMIZATION CYCLE   1            *
         *************************************************************
---------------------------------
CARTESIAN COORDINATES (ANGSTROEM)
---------------------------------
  C     -1.064001    0.592854   -0.664298
  C     -1.064001   -0.623040    0.160733
  N     -1.064001   -0.277444    1.464543
  C     -1.064001    1.224389    1.574910
  N     -1.064001    1.676719    0.138568
  H     -1.064001    0.597467   -1.748848
  H     -1.064001   -1.632553   -0.235693
  C     -1.064001   -1.216011    2.595910
  H     -2.084693   -1.477633    2.897324
  H     -0.545941   -2.147667    2.341473
  H     -0.561369   -0.787033    3.470237
  C     -1.064001    3.074808   -0.315576
  H     -0.043309    3.451557   -0.447321
  H     -1.582061    3.182598   -1.275317
  H     -1.566633    3.728772    0.406090

----------------------------
CARTESIAN COORDINATES (A.U.)
----------------------------
  NO LB      ZA    FRAG     MASS         X           Y           Z
   0 C     6.0000    0    12.011   -2.010671    1.120331   -1.255341
   1 C     6.0000    0    12.011   -2.010671   -1.177375    0.303740
   2 N     7.0000    0    14.007   -2.010671   -0.524294    2.767585
   3 C     6.0000    0    12.011   -2.010671    2.313759    2.976149
   4 N     7.0000    0    14.007   -2.010671    3.168540    0.261855
   5 H     1.0000    0     1.008   -2.010671    1.129050   -3.304844
   6 H     1.0000    0     1.008   -2.010671   -3.085078   -0.445396
   7 C     6.0000    0    12.011   -2.010671   -2.297928    4.905560
   8 H     1.0000    0     1.008   -3.939500   -2.792322    5.475149
   9 H     1.0000    0     1.008   -1.031680   -4.058503    4.424743
  10 H     1.0000    0     1.008   -1.060835   -1.487276    6.557798
  11 C     6.0000    0    12.011   -2.010671    5.810546   -0.596352
  12 H     1.0000    0     1.008   -0.081843    6.522497   -0.845314
  13 H     1.0000    0     1.008   -2.989663    6.014238   -2.410000
  14 H     1.0000    0     1.008   -2.960508    7.046358    0.767398

--------------------------------
INTERNAL COORDINATES (ANGSTROEM)
--------------------------------
 C      0   0   0     0.000000000000     0.00000000     0.00000000
 C      1   0   0     1.469377999833     0.00000000     0.00000000
 N      2   1   0     1.348835848635   109.31266279     0.00000000
 C      3   2   1     1.505882816230   109.04876187     0.00000000
 N      1   2   3     1.348835848770   109.31266278     0.00000000
 H      1   2   3     1.084559806760   124.40214462   180.00000000
 H      2   1   3     1.084559807080   124.40214465   180.00000000
 C      3   2   1     1.469999999991   125.47561909   180.00000085
 H      8   3   2     1.095950936013   111.35132239   270.49997504
 H      8   3   2     1.095950520187   111.35133091    30.50001014
 H      8   3   2     1.095951035330   111.35132039   150.49999856
 C      5   1   2     1.470000000366   125.47561906   180.00000000
 H     12   5   1     1.095950935931   111.35132238   270.49997503
 H     12   5   1     1.095950519874   111.35133086    30.50001014
 H     12   5   1     1.095951035322   111.35132035   150.49999856

---------------------------
INTERNAL COORDINATES (A.U.)
---------------------------
 C      0   0   0     0.000000000000     0.00000000     0.00000000
 C      1   0   0     2.776722006893     0.00000000     0.00000000
 N      2   1   0     2.548930353536   109.31266279     0.00000000
 C      3   2   1     2.845706112452   109.04876187     0.00000000
 N      1   2   3     2.548930353791   109.31266278     0.00000000
 H      1   2   3     2.049521010635   124.40214462   180.00000000
 H      2   1   3     2.049521011240   124.40214465   180.00000000
 C      3   2   1     2.777897416847   125.47561909   180.00000085
 H      8   3   2     2.071047125279   111.35132239   270.49997504
 H      8   3   2     2.071046339483   111.35133091    30.50001014
 H      8   3   2     2.071047312960   111.35132039   150.49999856
 C      5   1   2     2.777897417555   125.47561906   180.00000000
 H     12   5   1     2.071047125125   111.35132238   270.49997503
 H     12   5   1     2.071046338890   111.35133086    30.50001014
 H     12   5   1     2.071047312946   111.35132035   150.49999856

---------------------
BASIS SET INFORMATION
---------------------
There are 3 groups of distinct atoms

 Group   1 Type C   : 11s6p2d1f contracted to 5s3p2d1f pattern {62111/411/11/1}
 Group   2 Type N   : 11s6p2d1f contracted to 5s3p2d1f pattern {62111/411/11/1}
 Group   3 Type H   : 5s1p contracted to 3s1p pattern {311/1}

Atom   0C    basis set group =>   1
Atom   1C    basis set group =>   1
Atom   2N    basis set group =>   2
Atom   3C    basis set group =>   1
Atom   4N    basis set group =>   2
Atom   5H    basis set group =>   3
Atom   6H    basis set group =>   3
Atom   7C    basis set group =>   1
Atom   8H    basis set group =>   3
Atom   9H    basis set group =>   3
Atom  10H    basis set group =>   3
Atom  11C    basis set group =>   1
Atom  12H    basis set group =>   3
Atom  13H    basis set group =>   3
Atom  14H    basis set group =>   3
---------------------------------
AUXILIARY/J BASIS SET INFORMATION
---------------------------------
There are 3 groups of distinct atoms

 Group   1 Type C   : 12s5p4d2f1g contracted to 6s4p3d1f1g pattern {711111/2111/211/2/1}
 Group   2 Type N   : 12s5p4d2f1g contracted to 6s4p3d1f1g pattern {711111/2111/211/2/1}
 Group   3 Type H   : 5s2p1d contracted to 3s1p1d pattern {311/2/1}

Atom   0C    basis set group =>   1
Atom   1C    basis set group =>   1
Atom   2N    basis set group =>   2
Atom   3C    basis set group =>   1
Atom   4N    basis set group =>   2
Atom   5H    basis set group =>   3
Atom   6H    basis set group =>   3
Atom   7C    basis set group =>   1
Atom   8H    basis set group =>   3
Atom   9H    basis set group =>   3
Atom  10H    basis set group =>   3
Atom  11C    basis set group =>   1
Atom  12H    basis set group =>   3
Atom  13H    basis set group =>   3
Atom  14H    basis set group =>   3
------------------------------------------------------------------------------
                           ORCA GTO INTEGRAL CALCULATION
                           -- RI-GTO INTEGRALS CHOSEN --
------------------------------------------------------------------------------
------------------------------------------------------------------------------
                   ___                                                        
                  /   \      - P O W E R E D   B Y -                         
                 /     \                                                     
                 |  |  |   _    _      __       _____    __    __             
                 |  |  |  | |  | |    /  \     |  _  \  |  |  /  |          
                  \  \/   | |  | |   /    \    | | | |  |  | /  /          
                 / \  \   | |__| |  /  /\  \   | |_| |  |  |/  /          
                |  |  |   |  __  | /  /__\  \  |    /   |      \           
                |  |  |   | |  | | |   __   |  |    \   |  |\   \          
                \     /   | |  | | |  |  |  |  | |\  \  |  | \   \       
                 \___/    |_|  |_| |__|  |__|  |_| \__\ |__|  \__/        
                                                                              
                      - O R C A' S   B I G   F R I E N D -                    
                                      &                                       
                       - I N T E G R A L  F E E D E R -                       
                                                                              
 v1 FN, 2020, v2 2021                                                         
------------------------------------------------------------------------------


Reading SHARK input file S-NHC.SHARKINP.tmp ... ok
----------------------
SHARK INTEGRAL PACKAGE
----------------------

Number of atoms                             ...     15
Number of basis functions                   ...    265
Number of shells                            ...    109
Maximum angular momentum                    ...      3
Integral batch strategy                     ... SHARK/LIBINT Hybrid
RI-J (if used) integral strategy            ... SPLIT-RIJ (Revised 2003 algorithm where possible)
Printlevel                                  ...      1
Contraction scheme used                     ... SEGMENTED contraction
Coulomb Range Separation                    ... NOT USED
Exchange Range Separation                   ... NOT USED
Finite Nucleus Model                        ... NOT USED
Auxiliary Coulomb fitting basis             ... AVAILABLE
   # of basis functions in Aux-J            ...    431
   # of shells in Aux-J                     ...    145
   Maximum angular momentum in Aux-J        ...      4
Auxiliary J/K fitting basis                 ... NOT available
Auxiliary Correlation fitting basis         ... NOT available
Auxiliary 'external' fitting basis          ... NOT available
Integral threshold                          ...     2.500000e-11
Primitive cut-off                           ...     2.500000e-12
Primitive pair pre-selection threshold      ...     2.500000e-12

Calculating pre-screening integrals         ... done (  0.1 sec) Dimension = 109
Organizing shell pair data                  ... done (  0.1 sec)
Shell pair information
Total number of shell pairs                 ...      5995
Shell pairs after pre-screening             ...      5492
Total number of primitive shell pairs       ...     17944
Primitive shell pairs kept                  ...     12572
          la=0 lb=0:   1553 shell pairs
          la=1 lb=0:   1567 shell pairs
          la=1 lb=1:    407 shell pairs
          la=2 lb=0:    776 shell pairs
          la=2 lb=1:    390 shell pairs
          la=2 lb=2:    102 shell pairs
          la=3 lb=0:    379 shell pairs
          la=3 lb=1:    195 shell pairs
          la=3 lb=2:     96 shell pairs
          la=3 lb=3:     27 shell pairs

Calculating one electron integrals          ... done (  0.0 sec)
Calculating RI/J V-Matrix + Cholesky decomp.... done (  0.0 sec)
Calculating Nuclear repulsion               ... done (  0.0 sec) ENN=    284.920980846163 Eh

SHARK setup successfully completed in   0.9 seconds

Maximum memory used throughout the entire GTOINT-calculation: 77.0 MB
-------------------------------------------------------------------------------
                                 ORCA SCF
-------------------------------------------------------------------------------

------------
SCF SETTINGS
------------
Hamiltonian:
 Density Functional     Method          .... DFT(GTOs)
 Exchange Functional    Exchange        .... PBE
   PBE kappa parameter   XKappa         ....  0.804000
   PBE mue parameter    XMuePBE         ....  0.219520
 Correlation Functional Correlation     .... PBE
   PBE beta parameter  CBetaPBE         ....  0.066725
 LDA part of GGA corr.  LDAOpt          .... PW91-LDA
 Gradients option       PostSCFGGA      .... off
 Hybrid DFT is turned on
   Fraction HF Exchange ScalHFX         ....  0.250000
   Scaling of DF-GGA-X  ScalDFX         ....  0.750000
   Scaling of DF-GGA-C  ScalDFC         ....  1.000000
   Scaling of DF-LDA-C  ScalLDAC        ....  1.000000
   Perturbative correction              ....  0.000000
   Density functional embedding theory  .... OFF
   NL short-range parameter             ....  6.900000
 RI-approximation to the Coulomb term is turned on
   Number of AuxJ basis functions       .... 431
   RIJ-COSX (HFX calculated with COS-X)).... on


General Settings:
 Integral files         IntName         .... S-NHC
 Hartree-Fock type      HFTyp           .... RHF
 Total Charge           Charge          ....    0
 Multiplicity           Mult            ....    1
 Number of Electrons    NEL             ....   52
 Basis Dimension        Dim             ....  265
 Nuclear Repulsion      ENuc            ....    284.9209808462 Eh

Convergence Acceleration:
 DIIS                   CNVDIIS         .... on
   Start iteration      DIISMaxIt       ....    12
   Startup error        DIISStart       ....  0.200000
   # of expansion vecs  DIISMaxEq       ....     5
   Bias factor          DIISBfac        ....   1.050
   Max. coefficient     DIISMaxC        ....  10.000
 Trust-Rad. Augm. Hess. CNVTRAH         .... auto
   Auto Start mean grad. ratio tolernc. ....  1.125000
   Auto Start start iteration           ....    20
   Auto Start num. interpolation iter.  ....    10
   Max. Number of Micro iterations      ....    16
   Max. Number of Macro iterations      .... Maxiter - #DIIS iter
   Number of Davidson start vectors     ....     2
   Converg. threshold I  (grad. norm)   ....   1.000e-05
   Converg. threshold II (energy diff.) ....   1.000e-08
   Grad. Scal. Fac. for Micro threshold ....   0.100
   Minimum threshold for Micro iter.    ....   0.010
   NR start threshold (gradient norm)   ....   0.001
   Initial trust radius                 ....   0.400
   Minimum AH scaling param. (alpha)    ....   1.000
   Maximum AH scaling param. (alpha)    .... 1000.000
   Orbital update algorithm             .... Taylor
   White noise on init. David. guess    .... on
   Maximum white noise                  ....   0.010
   Quad. conv. algorithm                .... NR
 SOSCF                  CNVSOSCF        .... on
   Start iteration      SOSCFMaxIt      ....   150
   Startup grad/error   SOSCFStart      ....  0.003300
 Level Shifting         CNVShift        .... on
   Level shift para.    LevelShift      ....    0.2500
   Turn off err/grad.   ShiftErr        ....    0.0010
 Zerner damping         CNVZerner       .... off
 Static damping         CNVDamp         .... on
   Fraction old density DampFac         ....    0.7000
   Max. Damping (<1)    DampMax         ....    0.9800
   Min. Damping (>=0)   DampMin         ....    0.0000
   Turn off err/grad.   DampErr         ....    0.1000
 Fernandez-Rico         CNVRico         .... off

SCF Procedure:
 Maximum # iterations   MaxIter         ....   125
 SCF integral mode      SCFMode         .... Direct
   Integral package                     .... SHARK and LIBINT hybrid scheme
 Reset frequency        DirectResetFreq ....    20
 Integral Threshold     Thresh          ....  2.500e-11 Eh
 Primitive CutOff       TCut            ....  2.500e-12 Eh

Convergence Tolerance:
 Convergence Check Mode ConvCheckMode   .... Total+1el-Energy
 Convergence forced     ConvForced      .... 0
 Energy Change          TolE            ....  1.000e-08 Eh
 1-El. energy change                    ....  1.000e-05 Eh
 Orbital Gradient       TolG            ....  1.000e-05
 Orbital Rotation angle TolX            ....  1.000e-05
 DIIS Error             TolErr          ....  5.000e-07


Diagonalization of the overlap matrix:
Smallest eigenvalue                        ... 1.559e-04
Time for diagonalization                   ...    0.014 sec
Threshold for overlap eigenvalues          ... 1.000e-08
Number of eigenvalues below threshold      ... 0
Time for construction of square roots      ...    0.007 sec
Total time needed                          ...    0.021 sec

Time for model grid setup =    0.290 sec

------------------------------
INITIAL GUESS: MODEL POTENTIAL
------------------------------
Loading Hartree-Fock densities                     ... done
Calculating cut-offs                               ... done
Initializing the effective Hamiltonian             ... done
Setting up the integral package (SHARK)            ... done
Starting the Coulomb interaction                   ... done (   0.4 sec)
Reading the grid                                   ... done
Mapping shells                                     ... done
Starting the XC term evaluation                    ... done (   0.5 sec)
  promolecular density results
     # of electrons  =     51.995836925
     EX              =    -40.902030639
     EC              =     -1.700543203
     EX+EC           =    -42.602573842
Transforming the Hamiltonian                       ... done (   0.0 sec)
Diagonalizing the Hamiltonian                      ... done (   0.0 sec)
Back transforming the eigenvectors                 ... done (   0.0 sec)
Now organizing SCF variables                       ... done
                      ------------------
                      INITIAL GUESS DONE (   1.2 sec)
                      ------------------
-------------------
DFT GRID GENERATION
-------------------

General Integration Accuracy     IntAcc      ... 4.388
Radial Grid Type                 RadialGrid  ... OptM3 with GC (2021)
Angular Grid (max. ang.)         AngularGrid ... 4 (Lebedev-302)
Angular grid pruning method      GridPruning ... 4 (adaptive)
Weight generation scheme         WeightScheme... Becke
Basis function cutoff            BFCut       ... 1.0000e-11
Integration weight cutoff        WCut        ... 1.0000e-14
Angular grids for H and He will be reduced by one unit
Partially contracted basis set               ... off
Rotationally invariant grid construction     ... off

Total number of grid points                  ...    68146
Total number of batches                      ...     1072
Average number of points per batch           ...       63
Average number of grid points per atom       ...     4543
Time for grid setup =    1.076 sec

--------------------
COSX GRID GENERATION
--------------------

GRIDX 1
-------
General Integration Accuracy     IntAcc      ... 3.816
Radial Grid Type                 RadialGrid  ... OptM3 with GC (2021)
Angular Grid (max. ang.)         AngularGrid ... 1 (Lebedev-50)
Angular grid pruning method      GridPruning ... 4 (adaptive)
Weight generation scheme         WeightScheme... Becke
Basis function cutoff            BFCut       ... 1.0000e-11
Integration weight cutoff        WCut        ... 1.0000e-14
Angular grids for H and He will be reduced by one unit
Partially contracted basis set               ... on
Rotationally invariant grid construction     ... off

Total number of grid points                  ...     8755
Total number of batches                      ...      145
Average number of points per batch           ...       60
Average number of grid points per atom       ...      584
UseSFitting                                  ... on

GRIDX 2
-------
General Integration Accuracy     IntAcc      ... 4.020
Radial Grid Type                 RadialGrid  ... OptM3 with GC (2021)
Angular Grid (max. ang.)         AngularGrid ... 2 (Lebedev-110)
Angular grid pruning method      GridPruning ... 4 (adaptive)
Weight generation scheme         WeightScheme... Becke
Basis function cutoff            BFCut       ... 1.0000e-11
Integration weight cutoff        WCut        ... 1.0000e-14
Angular grids for H and He will be reduced by one unit
Partially contracted basis set               ... on
Rotationally invariant grid construction     ... off

Total number of grid points                  ...    18855
Total number of batches                      ...      301
Average number of points per batch           ...       62
Average number of grid points per atom       ...     1257
UseSFitting                                  ... on

GRIDX 3
-------
General Integration Accuracy     IntAcc      ... 4.338
Radial Grid Type                 RadialGrid  ... OptM3 with GC (2021)
Angular Grid (max. ang.)         AngularGrid ... 3 (Lebedev-194)
Angular grid pruning method      GridPruning ... 4 (adaptive)
Weight generation scheme         WeightScheme... Becke
Basis function cutoff            BFCut       ... 1.0000e-11
Integration weight cutoff        WCut        ... 1.0000e-14
Angular grids for H and He will be reduced by one unit
Partially contracted basis set               ... on
Rotationally invariant grid construction     ... off

Total number of grid points                  ...    41352
Total number of batches                      ...      656
Average number of points per batch           ...       63
Average number of grid points per atom       ...     2757
UseSFitting                                  ... on

Time for X-Grid setup             =    1.528 sec


--------------------
CPCM SOLVATION MODEL
--------------------
CPCM parameters:
  Epsilon                                         ...       2.4000
  Refrac                                          ...       1.4970
  Rsolv                                           ...       1.3000
  Surface type                                    ... GAUSSIAN VDW
  Epsilon function type                           ...         CPCM
Radii:
 Radius for C  used is    3.8550 Bohr (=   2.0400 Ang.)
 Radius for N  used is    3.5149 Bohr (=   1.8600 Ang.)
 Radius for H  used is    2.4944 Bohr (=   1.3200 Ang.)
Calculating surface                               ...        done! (  0.0s)
GEPOL surface points                              ...          878
GEPOL Volume                                      ...     921.8923
GEPOL Surface-area                                ...     543.8813
Calculating surface distance matrix               ...        done! (  0.0s)
Performing Cholesky decomposition & store         ...        done! (  0.0s)
Overall time for CPCM initialization              ...                 0.0s
--------------
SCF ITERATIONS
--------------
ITER       Energy         Delta-E        Max-DP      RMS-DP      [F,P]     Damp
               ***  Starting incremental Fock matrix formation  ***
  0   -304.3923756802   0.000000000000 0.04099742  0.00064016  0.1308229 0.7000
  1   -304.4413213675  -0.048945687333 0.04415553  0.00052395  0.0734297 0.7000
                               ***Turning on DIIS***
  2   -304.4646066837  -0.023285316249 0.11234579  0.00110626  0.0326408 0.0000
  3   -304.4991985638  -0.034591880062 0.01178162  0.00030817  0.0354136 0.0000
  4   -304.5065324755  -0.007333911679 0.01048505  0.00011943  0.0063465 0.0000
  5   -304.5068367156  -0.000304240142 0.00121671  0.00003736  0.0037658 0.0000
                      *** Initiating the SOSCF procedure ***
                           *** Shutting down DIIS ***
                      *** Re-Reading the Fockian *** 
                      *** Removing any level shift *** 
ITER      Energy       Delta-E        Grad      Rot      Max-DP    RMS-DP
  6   -304.50688181  -0.0000450978  0.000347  0.000347  0.000705  0.000026
               *** Restarting incremental Fock matrix formation ***
  7   -304.50687953   0.0000022882  0.000232  0.001093  0.001656  0.000015
  8   -304.50687747   0.0000020507  0.000544  0.000903  0.000844  0.000008
  9   -304.50688053  -0.0000030543  0.000020  0.000042  0.000058  0.000001
 10   -304.50688051   0.0000000195  0.000034  0.000044  0.000038  0.000001
                  ***Gradient check signals convergence***
              ***Rediagonalizing the Fockian in SOSCF/NRSCF***

               *****************************************************
               *                     SUCCESS                       *
               *           SCF CONVERGED AFTER  11 CYCLES          *
               *****************************************************

Old exchange energy                            =    -10.432716855 Eh
New exchange energy                            =    -10.432722480 Eh
Exchange energy change after final integration =     -0.000005625 Eh
Total energy after final integration           =   -304.506886172 Eh
Final COS-X integration done in                =    21.198 sec

----------------
TOTAL SCF ENERGY
----------------

Total Energy       :         -304.50688617 Eh           -8286.05363 eV

Components:
Nuclear Repulsion  :          284.92098085 Eh            7753.09405 eV
Electronic Energy  :         -589.42786702 Eh          -16039.14768 eV
One Electron Energy:         -974.89041097 Eh          -26528.11675 eV
Two Electron Energy:          385.46254395 Eh           10488.96907 eV
Max COSX asymmetry :            0.00000141 Eh               0.00004 eV
CPCM Dielectric    :           -0.00927362 Eh              -0.25235 eV

Virial components:
Potential Energy   :         -606.69436869 Eh          -16508.99307 eV
Kinetic Energy     :          302.18748252 Eh            8222.93945 eV
Virial Ratio       :            2.00767538


DFT components:
N(Alpha)           :       26.000022788416 electrons
N(Beta)            :       26.000022788416 electrons
N(Total)           :       52.000045576832 electrons
E(X)               :      -31.237644746699 Eh       
E(C)               :       -1.708327885948 Eh       
E(XC)              :      -32.945972632647 Eh       
DFET-embed. en.    :        0.000000000000 Eh       
CPCM Solvation Model Properties:
Surface-charge          :           -0.02592431
Charge-correction       :           -0.00023477 Eh              -0.00639 eV
Free-energy (cav+disp)  :  This term is not implemented in the current solvation scheme

---------------
SCF CONVERGENCE
---------------

  Last Energy change         ...   -3.8546e-08  Tolerance :   1.0000e-08
  Last MAX-Density change    ...    1.4433e-15  Tolerance :   1.0000e-07
  Last RMS-Density change    ...    1.5301e-17  Tolerance :   5.0000e-09
  Last Orbital Gradient      ...    2.0791e-06  Tolerance :   1.0000e-05
  Last Orbital Rotation      ...    8.9597e-06  Tolerance :   1.0000e-05

             **** THE GBW FILE WAS UPDATED (S-NHC.gbw) ****
             **** DENSITY S-NHC.scfp WAS UPDATED ****
             **** ENERGY FILE WAS UPDATED (S-NHC.en.tmp) ****
             **** THE GBW FILE WAS UPDATED (S-NHC.gbw) ****
             **** DENSITY S-NHC.scfp WAS UPDATED ****
----------------
ORBITAL ENERGIES
----------------

  NO   OCC          E(Eh)            E(eV) 
   0   2.0000     -14.447030      -393.1237 
   1   2.0000     -14.447019      -393.1234 
   2   2.0000     -10.264442      -279.3097 
   3   2.0000     -10.261083      -279.2183 
   4   2.0000     -10.261066      -279.2178 
   5   2.0000     -10.257412      -279.1184 
   6   2.0000     -10.257044      -279.1084 
   7   2.0000      -1.017010       -27.6742 
   8   2.0000      -0.943177       -25.6651 
   9   2.0000      -0.781981       -21.2788 
  10   2.0000      -0.718973       -19.5642 
  11   2.0000      -0.712120       -19.3778 
  12   2.0000      -0.598047       -16.2737 
  13   2.0000      -0.586975       -15.9724 
  14   2.0000      -0.529607       -14.4113 
  15   2.0000      -0.476232       -12.9589 
  16   2.0000      -0.468806       -12.7568 
  17   2.0000      -0.461425       -12.5560 
  18   2.0000      -0.455610       -12.3978 
  19   2.0000      -0.434768       -11.8306 
  20   2.0000      -0.396903       -10.8003 
  21   2.0000      -0.390634       -10.6297 
  22   2.0000      -0.383053       -10.4234 
  23   2.0000      -0.301234        -8.1970 
  24   2.0000      -0.237811        -6.4712 
  25   2.0000      -0.211284        -5.7493 
  26   0.0000       0.001261         0.0343 
  27   0.0000       0.025054         0.6818 
  28   0.0000       0.062314         1.6957 
  29   0.0000       0.062689         1.7059 
  30   0.0000       0.086274         2.3476 
  31   0.0000       0.102944         2.8012 
  32   0.0000       0.108343         2.9482 
  33   0.0000       0.121289         3.3005 
  34   0.0000       0.122059         3.3214 
  35   0.0000       0.132189         3.5970 
  36   0.0000       0.133573         3.6347 
  37   0.0000       0.137758         3.7486 
  38   0.0000       0.173345         4.7169 
  39   0.0000       0.178578         4.8594 
  40   0.0000       0.185216         5.0400 
  41   0.0000       0.205756         5.5989 
  42   0.0000       0.211956         5.7676 
  43   0.0000       0.212885         5.7929 
  44   0.0000       0.232852         6.3362 
  45   0.0000       0.259075         7.0498 
  46   0.0000       0.270232         7.3534 
  47   0.0000       0.281653         7.6642 
  48   0.0000       0.284112         7.7311 
  49   0.0000       0.302056         8.2193 
  50   0.0000       0.305020         8.3000 
  51   0.0000       0.318910         8.6780 
  52   0.0000       0.334971         9.1150 
  53   0.0000       0.346845         9.4381 
  54   0.0000       0.365437         9.9440 
  55   0.0000       0.393640        10.7115 
  56   0.0000       0.394221        10.7273 
  57   0.0000       0.405223        11.0267 
  58   0.0000       0.409858        11.1528 
  59   0.0000       0.438842        11.9415 
  60   0.0000       0.447148        12.1675 
  61   0.0000       0.462530        12.5861 
  62   0.0000       0.463790        12.6204 
  63   0.0000       0.476740        12.9727 
  64   0.0000       0.485158        13.2018 
  65   0.0000       0.495068        13.4715 
  66   0.0000       0.509341        13.8599 
  67   0.0000       0.509804        13.8725 
  68   0.0000       0.519630        14.1398 
  69   0.0000       0.526963        14.3394 
  70   0.0000       0.567428        15.4405 
  71   0.0000       0.575140        15.6503 
  72   0.0000       0.581941        15.8354 
  73   0.0000       0.606514        16.5041 
  74   0.0000       0.630598        17.1594 
  75   0.0000       0.654415        17.8075 
  76   0.0000       0.678061        18.4510 
  77   0.0000       0.708093        19.2682 
  78   0.0000       0.713949        19.4276 
  79   0.0000       0.724995        19.7281 
  80   0.0000       0.730818        19.8866 
  81   0.0000       0.768712        20.9177 
  82   0.0000       0.811702        22.0875 
  83   0.0000       0.864596        23.5268 
  84   0.0000       0.886185        24.1143 
  85   0.0000       0.888350        24.1732 
  86   0.0000       0.893298        24.3079 
  87   0.0000       0.902197        24.5500 
  88   0.0000       0.915200        24.9038 
  89   0.0000       0.991402        26.9774 
  90   0.0000       1.013426        27.5767 
  91   0.0000       1.022320        27.8188 
  92   0.0000       1.029660        28.0185 
  93   0.0000       1.036041        28.1921 
  94   0.0000       1.060421        28.8555 
  95   0.0000       1.071546        29.1582 
  96   0.0000       1.096572        29.8392 
  97   0.0000       1.134470        30.8705 
  98   0.0000       1.151866        31.3439 
  99   0.0000       1.182477        32.1768 
 100   0.0000       1.218106        33.1464 
 101   0.0000       1.246222        33.9114 
 102   0.0000       1.293168        35.1889 
 103   0.0000       1.318934        35.8900 
 104   0.0000       1.340691        36.4821 
 105   0.0000       1.387022        37.7428 
 106   0.0000       1.397288        38.0221 
 107   0.0000       1.408154        38.3178 
 108   0.0000       1.453955        39.5641 
 109   0.0000       1.469444        39.9856 
 110   0.0000       1.489417        40.5291 
 111   0.0000       1.503223        40.9048 
 112   0.0000       1.519070        41.3360 
 113   0.0000       1.529038        41.6072 
 114   0.0000       1.530124        41.6368 
 115   0.0000       1.549719        42.1700 
 116   0.0000       1.559221        42.4285 
 117   0.0000       1.577545        42.9272 
 118   0.0000       1.600220        43.5442 
 119   0.0000       1.612162        43.8691 
 120   0.0000       1.619733        44.0752 
 121   0.0000       1.640029        44.6275 
 122   0.0000       1.642703        44.7002 
 123   0.0000       1.662562        45.2406 
 124   0.0000       1.672257        45.5044 
 125   0.0000       1.717775        46.7430 
 126   0.0000       1.721285        46.8386 
 127   0.0000       1.754814        47.7509 
 128   0.0000       1.817777        49.4642 
 129   0.0000       1.873472        50.9798 
 130   0.0000       1.889891        51.4266 
 131   0.0000       1.903014        51.7837 
 132   0.0000       1.931439        52.5571 
 133   0.0000       1.955788        53.2197 
 134   0.0000       1.978237        53.8306 
 135   0.0000       2.000886        54.4469 
 136   0.0000       2.018123        54.9159 
 137   0.0000       2.036906        55.4270 
 138   0.0000       2.053240        55.8715 
 139   0.0000       2.086297        56.7710 
 140   0.0000       2.105659        57.2979 
 141   0.0000       2.118698        57.6527 
 142   0.0000       2.137135        58.1544 
 143   0.0000       2.244971        61.0888 
 144   0.0000       2.253107        61.3102 
 145   0.0000       2.267375        61.6984 
 146   0.0000       2.298823        62.5542 
 147   0.0000       2.309951        62.8570 
 148   0.0000       2.311176        62.8903 
 149   0.0000       2.351749        63.9944 
 150   0.0000       2.358109        64.1674 
 151   0.0000       2.380516        64.7771 
 152   0.0000       2.394355        65.1537 
 153   0.0000       2.420258        65.8586 
 154   0.0000       2.439133        66.3722 
 155   0.0000       2.492867        67.8344 
 156   0.0000       2.498694        67.9929 
 157   0.0000       2.522025        68.6278 
 158   0.0000       2.522942        68.6528 
 159   0.0000       2.553257        69.4777 
 160   0.0000       2.582127        70.2633 
 161   0.0000       2.587679        70.4143 
 162   0.0000       2.603021        70.8318 
 163   0.0000       2.624188        71.4078 
 164   0.0000       2.671796        72.7033 
 165   0.0000       2.681146        72.9577 
 166   0.0000       2.716212        73.9119 
 167   0.0000       2.729358        74.2696 
 168   0.0000       2.777385        75.5765 
 169   0.0000       2.807985        76.4092 
 170   0.0000       2.808547        76.4244 
 171   0.0000       2.828775        76.9749 
 172   0.0000       2.868255        78.0492 
 173   0.0000       2.898699        78.8776 
 174   0.0000       2.945240        80.1440 
 175   0.0000       2.959848        80.5416 
 176   0.0000       2.985086        81.2283 
 177   0.0000       2.988596        81.3238 
 178   0.0000       3.014242        82.0217 
 179   0.0000       3.042776        82.7981 
 180   0.0000       3.044155        82.8357 
 181   0.0000       3.055333        83.1398 
 182   0.0000       3.059931        83.2650 
 183   0.0000       3.102428        84.4213 
 184   0.0000       3.118472        84.8579 
 185   0.0000       3.119503        84.8860 
 186   0.0000       3.148502        85.6751 
 187   0.0000       3.164636        86.1141 
 188   0.0000       3.178485        86.4910 
 189   0.0000       3.212409        87.4141 
 190   0.0000       3.234774        88.0227 
 191   0.0000       3.261089        88.7388 
 192   0.0000       3.265464        88.8578 
 193   0.0000       3.270482        88.9943 
 194   0.0000       3.291391        89.5633 
 195   0.0000       3.314109        90.1815 
 196   0.0000       3.321247        90.3757 
 197   0.0000       3.339343        90.8681 
 198   0.0000       3.381171        92.0063 
 199   0.0000       3.400657        92.5366 
 200   0.0000       3.416066        92.9559 
 201   0.0000       3.444420        93.7274 
 202   0.0000       3.481441        94.7348 
 203   0.0000       3.495901        95.1283 
 204   0.0000       3.517074        95.7044 
 205   0.0000       3.539160        96.3054 
 206   0.0000       3.572586        97.2150 
 207   0.0000       3.587535        97.6218 
 208   0.0000       3.614298        98.3501 
 209   0.0000       3.616792        98.4179 
 210   0.0000       3.658727        99.5590 
 211   0.0000       3.695346       100.5555 
 212   0.0000       3.789990       103.1309 
 213   0.0000       3.800828       103.4258 
 214   0.0000       3.834671       104.3467 
 215   0.0000       3.840874       104.5155 
 216   0.0000       3.854361       104.8825 
 217   0.0000       3.903933       106.2314 
 218   0.0000       3.908116       106.3452 
 219   0.0000       4.092015       111.3494 
 220   0.0000       4.098362       111.5221 
 221   0.0000       4.100171       111.5713 
 222   0.0000       4.137423       112.5850 
 223   0.0000       4.206463       114.4637 
 224   0.0000       4.226678       115.0137 
 225   0.0000       4.231580       115.1472 
 226   0.0000       4.295385       116.8834 
 227   0.0000       4.318857       117.5221 
 228   0.0000       4.354459       118.4908 
 229   0.0000       4.383495       119.2809 
 230   0.0000       4.416530       120.1799 
 231   0.0000       4.583881       124.7337 
 232   0.0000       4.649327       126.5146 
 233   0.0000       4.755299       129.3983 
 234   0.0000       4.785897       130.2309 
 235   0.0000       4.827291       131.3573 
 236   0.0000       4.868953       132.4909 
 237   0.0000       4.895230       133.2060 
 238   0.0000       4.985013       135.6491 
 239   0.0000       5.021687       136.6471 
 240   0.0000       5.092178       138.5652 
 241   0.0000       5.108324       139.0046 
 242   0.0000       5.120182       139.3272 
 243   0.0000       5.120308       139.3307 
 244   0.0000       5.194151       141.3400 
 245   0.0000       5.212841       141.8486 
 246   0.0000       5.278991       143.6487 
 247   0.0000       5.287961       143.8927 
 248   0.0000       5.362874       145.9312 
 249   0.0000       5.493353       149.4817 
 250   0.0000       5.495150       149.5306 
 251   0.0000       5.623839       153.0324 
 252   0.0000       5.636334       153.3724 
 253   0.0000       5.682453       154.6274 
 254   0.0000       5.762763       156.8128 
 255   0.0000       5.822989       158.4516 
 256   0.0000       5.878570       159.9640 
 257   0.0000       6.082840       165.5225 
 258   0.0000      22.040711       599.7582 
 259   0.0000      22.413657       609.9066 
 260   0.0000      22.462092       611.2246 
 261   0.0000      22.543107       613.4291 
 262   0.0000      22.754927       619.1930 
 263   0.0000      32.736906       890.8165 
 264   0.0000      32.868292       894.3917 

                    ********************************
                    * MULLIKEN POPULATION ANALYSIS *
                    ********************************

-----------------------
MULLIKEN ATOMIC CHARGES
-----------------------
   0 C :   -0.170939
   1 C :   -0.170249
   2 N :    0.051220
   3 C :   -0.380647
   4 N :    0.051137
   5 H :    0.161965
   6 H :    0.162126
   7 C :   -0.329785
   8 H :    0.154741
   9 H :    0.156248
  10 H :    0.166433
  11 C :   -0.329933
  12 H :    0.154840
  13 H :    0.156339
  14 H :    0.166504
Sum of atomic charges:   -0.0000000

--------------------------------
MULLIKEN REDUCED ORBITAL CHARGES
--------------------------------
  0 C s       :     3.207226  s :     3.207226
      pz      :     0.953179  p :     2.847211
      px      :     1.076853
      py      :     0.817178
      dz2     :     0.028681  d :     0.105641
      dxz     :     0.010049
      dyz     :     0.022864
      dx2y2   :     0.011891
      dxy     :     0.032156
      f0      :     0.001477  f :     0.010861
      f+1     :     0.000378
      f-1     :     0.002579
      f+2     :     0.001534
      f-2     :     0.002317
      f+3     :     0.001533
      f-3     :     0.001043
  1 C s       :     3.206685  s :     3.206685
      pz      :     0.787089  p :     2.847076
      px      :     1.076946
      py      :     0.983041
      dz2     :     0.023443  d :     0.105628
      dxz     :     0.034685
      dyz     :     0.029172
      dx2y2   :     0.010819
      dxy     :     0.007508
      f0      :     0.002191  f :     0.010859
      f+1     :     0.002155
      f-1     :     0.002368
      f+2     :     0.001109
      f-2     :     0.001080
      f+3     :     0.000994
      f-3     :     0.000962
  2 N s       :     3.422193  s :     3.422193
      pz      :     0.998100  p :     3.429528
      px      :     1.404287
      py      :     1.027140
      dz2     :     0.021651  d :     0.092310
      dxz     :     0.019205
      dyz     :     0.029772
      dx2y2   :     0.009175
      dxy     :     0.012507
      f0      :     0.000981  f :     0.004749
      f+1     :     0.000827
      f-1     :     0.000829
      f+2     :     0.000690
      f-2     :     0.000317
      f+3     :     0.000541
      f-3     :     0.000564
  3 C s       :     3.824879  s :     3.824879
      pz      :     0.928719  p :     2.450935
      px      :     0.767735
      py      :     0.754481
      dz2     :     0.024032  d :     0.095012
      dxz     :     0.018762
      dyz     :     0.017730
      dx2y2   :     0.014482
      dxy     :     0.020007
      f0      :     0.001876  f :     0.009821
      f+1     :     0.001589
      f-1     :     0.002217
      f+2     :     0.000881
      f-2     :     0.000447
      f+3     :     0.001642
      f-3     :     0.001168
  4 N s       :     3.422149  s :     3.422149
      pz      :     1.043159  p :     3.429646
      px      :     1.404322
      py      :     0.982165
      dz2     :     0.021146  d :     0.092318
      dxz     :     0.014911
      dyz     :     0.026751
      dx2y2   :     0.012716
      dxy     :     0.016795
      f0      :     0.000590  f :     0.004749
      f+1     :     0.000348
      f-1     :     0.000993
      f+2     :     0.000773
      f-2     :     0.000592
      f+3     :     0.000745
      f-3     :     0.000709
  5 H s       :     0.815652  s :     0.815652
      pz      :     0.013958  p :     0.022383
      px      :     0.005578
      py      :     0.002847
  6 H s       :     0.815496  s :     0.815496
      pz      :     0.004337  p :     0.022378
      px      :     0.005577
      py      :     0.012464
  7 C s       :     3.271066  s :     3.271066
      pz      :     0.913648  p :     2.976941
      px      :     1.100952
      py      :     0.962341
      dz2     :     0.016537  d :     0.076186
      dxz     :     0.020120
      dyz     :     0.013021
      dx2y2   :     0.009551
      dxy     :     0.016957
      f0      :     0.000735  f :     0.005592
      f+1     :     0.000526
      f-1     :     0.001370
      f+2     :     0.000919
      f-2     :     0.001258
      f+3     :     0.000602
      f-3     :     0.000183
  8 H s       :     0.824410  s :     0.824410
      pz      :     0.004634  p :     0.020849
      px      :     0.011658
      py      :     0.004557
  9 H s       :     0.822995  s :     0.822995
      pz      :     0.003808  p :     0.020757
      px      :     0.006388
      py      :     0.010561
 10 H s       :     0.812433  s :     0.812433
      pz      :     0.009882  p :     0.021134
      px      :     0.006290
      py      :     0.004963
 11 C s       :     3.271107  s :     3.271107
      pz      :     1.076850  p :     2.977054
      px      :     1.100978
      py      :     0.799227
      dz2     :     0.010803  d :     0.076180
      dxz     :     0.009003
      dyz     :     0.017529
      dx2y2   :     0.010787
      dxy     :     0.028058
      f0      :     0.000419  f :     0.005591
      f+1     :     0.000554
      f-1     :     0.000841
      f+2     :     0.000958
      f-2     :     0.000441
      f+3     :     0.001390
      f-3     :     0.000988
 12 H s       :     0.824310  s :     0.824310
      pz      :     0.004550  p :     0.020850
      px      :     0.011657
      py      :     0.004643
 13 H s       :     0.822907  s :     0.822907
      pz      :     0.010890  p :     0.020753
      px      :     0.006385
      py      :     0.003478
 14 H s       :     0.812363  s :     0.812363
      pz      :     0.007920  p :     0.021134
      px      :     0.006286
      py      :     0.006927


                     *******************************
                     * LOEWDIN POPULATION ANALYSIS *
                     *******************************

----------------------
LOEWDIN ATOMIC CHARGES
----------------------
   0 C :   -0.254406
   1 C :   -0.254483
   2 N :    0.171387
   3 C :   -0.327148
   4 N :    0.171410
   5 H :    0.138421
   6 H :    0.138419
   7 C :   -0.277626
   8 H :    0.125531
   9 H :    0.128679
  10 H :    0.131606
  11 C :   -0.277645
  12 H :    0.125536
  13 H :    0.128715
  14 H :    0.131602

-------------------------------
LOEWDIN REDUCED ORBITAL CHARGES
-------------------------------
  0 C s       :     2.801150  s :     2.801150
      pz      :     0.997149  p :     2.953082
      px      :     1.000612
      py      :     0.955322
      dz2     :     0.122590  d :     0.439134
      dxz     :     0.025395
      dyz     :     0.122719
      dx2y2   :     0.064463
      dxy     :     0.103967
      f0      :     0.005721  f :     0.061039
      f+1     :     0.000715
      f-1     :     0.019097
      f+2     :     0.009885
      f-2     :     0.015525
      f+3     :     0.004568
      f-3     :     0.005528
  1 C s       :     2.801143  s :     2.801143
      pz      :     0.929083  p :     2.953169
      px      :     1.000685
      py      :     1.023401
      dz2     :     0.115650  d :     0.439131
      dxz     :     0.108999
      dyz     :     0.148573
      dx2y2   :     0.045553
      dxy     :     0.020356
      f0      :     0.012861  f :     0.061040
      f+1     :     0.011028
      f-1     :     0.017168
      f+2     :     0.006483
      f-2     :     0.007586
      f+3     :     0.002196
      f-3     :     0.003718
  2 N s       :     2.920957  s :     2.920957
      pz      :     1.168657  p :     3.579745
      px      :     1.241666
      py      :     1.169422
      dz2     :     0.083487  d :     0.307880
      dxz     :     0.052554
      dyz     :     0.099158
      dx2y2   :     0.036005
      dxy     :     0.036675
      f0      :     0.005347  f :     0.020031
      f+1     :     0.003649
      f-1     :     0.003640
      f+2     :     0.002954
      f-2     :     0.001764
      f+3     :     0.001048
      f-3     :     0.001629
  3 C s       :     3.199348  s :     3.199348
      pz      :     1.071920  p :     2.747992
      px      :     0.784213
      py      :     0.891859
      dz2     :     0.089922  d :     0.326212
      dxz     :     0.039553
      dyz     :     0.079048
      dx2y2   :     0.064800
      dxy     :     0.052890
      f0      :     0.012660  f :     0.053595
      f+1     :     0.006856
      f-1     :     0.014015
      f+2     :     0.004954
      f-2     :     0.001841
      f+3     :     0.006121
      f-3     :     0.007148
  4 N s       :     2.920952  s :     2.920952
      pz      :     1.192254  p :     3.579735
      px      :     1.241681
      py      :     1.145800
      dz2     :     0.084252  d :     0.307872
      dxz     :     0.044491
      dyz     :     0.093044
      dx2y2   :     0.041354
      dxy     :     0.044731
      f0      :     0.002804  f :     0.020031
      f+1     :     0.000608
      f-1     :     0.005551
      f+2     :     0.003061
      f-2     :     0.003281
      f+3     :     0.002572
      f-3     :     0.002154
  5 H s       :     0.796404  s :     0.796404
      pz      :     0.039759  p :     0.065175
      px      :     0.016455
      py      :     0.008961
  6 H s       :     0.796403  s :     0.796403
      pz      :     0.013418  p :     0.065178
      px      :     0.016457
      py      :     0.035302
  7 C s       :     2.845836  s :     2.845836
      pz      :     0.971800  p :     3.096474
      px      :     1.109247
      py      :     1.015428
      dz2     :     0.065046  d :     0.299298
      dxz     :     0.064509
      dyz     :     0.070239
      dx2y2   :     0.042575
      dxy     :     0.056929
      f0      :     0.005566  f :     0.036017
      f+1     :     0.004363
      f-1     :     0.007902
      f+2     :     0.005450
      f-2     :     0.006885
      f+3     :     0.003717
      f-3     :     0.002135
  8 H s       :     0.811972  s :     0.811972
      pz      :     0.013389  p :     0.062497
      px      :     0.035687
      py      :     0.013421
  9 H s       :     0.808951  s :     0.808951
      pz      :     0.012015  p :     0.062369
      px      :     0.019638
      py      :     0.030716
 10 H s       :     0.805848  s :     0.805848
      pz      :     0.028049  p :     0.062546
      px      :     0.019119
      py      :     0.015378
 11 C s       :     2.845833  s :     2.845833
      pz      :     1.088554  p :     3.096504
      px      :     1.109249
      py      :     0.898701
      dz2     :     0.044403  d :     0.299291
      dxz     :     0.034145
      dyz     :     0.069794
      dx2y2   :     0.063667
      dxy     :     0.087282
      f0      :     0.003316  f :     0.036017
      f+1     :     0.002742
      f-1     :     0.005806
      f+2     :     0.005540
      f-2     :     0.004048
      f+3     :     0.008174
      f-3     :     0.006391
 12 H s       :     0.811966  s :     0.811966
      pz      :     0.013774  p :     0.062498
      px      :     0.035686
      py      :     0.013038
 13 H s       :     0.808915  s :     0.808915
      pz      :     0.032871  p :     0.062370
      px      :     0.019636
      py      :     0.009862
 14 H s       :     0.805851  s :     0.805851
      pz      :     0.024392  p :     0.062547
      px      :     0.019119
      py      :     0.019036


                      *****************************
                      * MAYER POPULATION ANALYSIS *
                      *****************************

  NA   - Mulliken gross atomic population
  ZA   - Total nuclear charge
  QA   - Mulliken gross atomic charge
  VA   - Mayer's total valence
  BVA  - Mayer's bonded valence
  FA   - Mayer's free valence

  ATOM       NA         ZA         QA         VA         BVA        FA
  0 C      6.1709     6.0000    -0.1709     3.9175     3.9175    -0.0000
  1 C      6.1702     6.0000    -0.1702     3.9171     3.9171     0.0000
  2 N      6.9488     7.0000     0.0512     3.3037     3.3037     0.0000
  3 C      6.3806     6.0000    -0.3806     2.6133     2.6133    -0.0000
  4 N      6.9489     7.0000     0.0511     3.3036     3.3036    -0.0000
  5 H      0.8380     1.0000     0.1620     0.9706     0.9706     0.0000
  6 H      0.8379     1.0000     0.1621     0.9705     0.9705     0.0000
  7 C      6.3298     6.0000    -0.3298     3.8561     3.8561    -0.0000
  8 H      0.8453     1.0000     0.1547     0.9573     0.9573     0.0000
  9 H      0.8438     1.0000     0.1562     0.9573     0.9573    -0.0000
 10 H      0.8336     1.0000     0.1664     0.9672     0.9672    -0.0000
 11 C      6.3299     6.0000    -0.3299     3.8559     3.8559    -0.0000
 12 H      0.8452     1.0000     0.1548     0.9573     0.9573     0.0000
 13 H      0.8437     1.0000     0.1563     0.9573     0.9573     0.0000
 14 H      0.8335     1.0000     0.1665     0.9672     0.9672    -0.0000

  Mayer bond orders larger than 0.100000
B(  0-C ,  1-C ) :   1.5766 B(  0-C ,  3-C ) :   0.1033 B(  0-C ,  4-N ) :   1.2248 
B(  0-C ,  5-H ) :   0.9479 B(  1-C ,  2-N ) :   1.2249 B(  1-C ,  3-C ) :   0.1031 
B(  1-C ,  6-H ) :   0.9477 B(  2-N ,  3-C ) :   1.1348 B(  2-N ,  7-C ) :   0.9194 
B(  3-C ,  4-N ) :   1.1347 B(  4-N , 11-C ) :   0.9195 B(  7-C ,  8-H ) :   0.9593 
B(  7-C ,  9-H ) :   0.9595 B(  7-C , 10-H ) :   0.9609 B( 11-C , 12-H ) :   0.9593 
B( 11-C , 13-H ) :   0.9595 B( 11-C , 14-H ) :   0.9609 

-------
TIMINGS
-------

Total SCF time: 0 days 0 hours 2 min 23 sec 

Total time                  ....     143.799 sec
Sum of individual times     ....     143.369 sec  ( 99.7%)

Fock matrix formation       ....     139.363 sec  ( 96.9%)
  Split-RI-J                ....       8.354 sec  (  6.0% of F)
  Chain of spheres X        ....      99.019 sec  ( 71.1% of F)
  XC integration            ....      19.303 sec  ( 13.9% of F)
    Basis function eval.    ....       6.095 sec  ( 31.6% of XC)
    Density eval.           ....       5.065 sec  ( 26.2% of XC)
    XC-Functional eval.     ....       0.933 sec  (  4.8% of XC)
    XC-Potential eval.      ....       6.702 sec  ( 34.7% of XC)
Diagonalization             ....       0.111 sec  (  0.1%)
Density matrix formation    ....       0.011 sec  (  0.0%)
Population analysis         ....       0.017 sec  (  0.0%)
Initial guess               ....       0.889 sec  (  0.6%)
Orbital Transformation      ....       0.000 sec  (  0.0%)
Orbital Orthonormalization  ....       0.000 sec  (  0.0%)
DIIS solution               ....       0.038 sec  (  0.0%)
SOSCF solution              ....       0.047 sec  (  0.0%)
Grid generation             ....       2.894 sec  (  2.0%)

Maximum memory used throughout the entire SCF-calculation: 144.4 MB


-------------------------------------------------------------------------------
                          DFT DISPERSION CORRECTION                            
                                                                               
                                 DFTD4 V2.5                                    
-------------------------------------------------------------------------------
The PBE0 functional is recognized
Active option DFTDOPT                   ...         5   

Starting D4
-------------------------   ----------------
Dispersion correction           -0.010308039
-------------------------   ----------------


-------------------------   --------------------
FINAL SINGLE POINT ENERGY      -304.517194211345
-------------------------   --------------------

------------------------------------------------------------------------------
                         ORCA SCF GRADIENT CALCULATION
------------------------------------------------------------------------------

 ... reading COSX grid (gridx3)
Gradient of the Kohn-Sham DFT energy:
Kohn-Sham wavefunction type      ... RKS
Hartree-Fock exchange scaling    ...    0.250
Number of operators              ...    1
Number of atoms                  ...   15
Basis set dimensions             ...  265
Integral neglect threshold       ... 2.5e-11
Integral primitive cutoff        ... 2.5e-12
SHARK Integral package           ... ON

Nuc. rep. gradient       (SHARK) ... done (  0.0 sec)
HCore & Overlap gradient (SHARK) ... done (  0.5 sec)
RI-J gradient            (SHARK) ... done (  2.9 sec)
COSX-gradient                    ... done ( 25.7 sec)
Exchange-correlation gradient    ... done
Dispersion correction            ... Starting D4


------------------- 
Dispersion Gradient 
------------------- 
   1  :   -0.000000818   -0.000032127   -0.000195334
   2  :    0.000000818   -0.000169642   -0.000102024
   3  :    0.000000091   -0.000120681    0.000100291
   4  :    0.000000000    0.000075218    0.000110854
   5  :   -0.000000091    0.000137783   -0.000075087
   6  :   -0.000000438   -0.000017543   -0.000080409
   7  :    0.000000438   -0.000068238   -0.000046011
   8  :   -0.000000156   -0.000211008    0.000256653
   9  :   -0.000026866   -0.000045077    0.000063243
  10  :    0.000013068   -0.000058425    0.000046683
  11  :    0.000012117   -0.000027400    0.000072116
  12  :    0.000000156    0.000316455   -0.000101251
  13  :    0.000026866    0.000075422   -0.000018520
  14  :   -0.000013068    0.000064967   -0.000037043
  15  :   -0.000012117    0.000077136    0.000001183

  |G| =    0.002910936

done

------------------
CARTESIAN GRADIENT
------------------

   1   C   :   -0.000111600    0.073553439   -0.030998755
   2   C   :    0.000106344   -0.055945647    0.056873163
   3   N   :   -0.003614516   -0.081612238    0.009913079
   4   C   :   -0.000028844    0.027455638    0.040435898
   5   N   :    0.003611495    0.039391947   -0.072357870
   6   H   :   -0.000006708   -0.004033232   -0.003188879
   7   H   :   -0.000001928   -0.001456425   -0.004947185
   8   C   :    0.001764821   -0.007928109    0.001311080
   9   H   :   -0.001089272   -0.002636738    0.003299429
  10   H   :    0.000399345   -0.005596094    0.004713761
  11   H   :    0.001627827   -0.003308661    0.006875263
  12   C   :   -0.001740045    0.004057450   -0.006833061
  13   H   :    0.001087295    0.004033345   -0.001215564
  14   H   :   -0.000428121    0.006476671   -0.003479761
  15   H   :   -0.001641837    0.007608656   -0.000519855

Difference to translation invariance:
           :   -0.0000657441    0.0000600017   -0.0001192563

Difference to rotation invariance:
           :   -0.0001629889   -0.0004990287   -0.0002455085

Norm of the cartesian gradient     ...    0.1707373290
RMS gradient                       ...    0.0254520183
MAX gradient                       ...    0.0816122376

-------
TIMINGS
-------

Total SCF gradient time            ...       42.658 sec

One electron gradient       ....       0.490 sec  (  1.1%)
RI-J Coulomb gradient       ....       2.912 sec  (  6.8%)
COSX gradient               ....      25.655 sec  ( 60.1%)
XC gradient                 ....      10.647 sec  ( 25.0%)
CPCM gradient               ....       0.848 sec  (  2.0%)
   A-Matrix (El+Nuc)        ....       0.057 sec  (  0.1%)
   Potential                ....       0.791 sec  (  1.9%)

Maximum memory used throughout the entire SCFGRAD-calculation: 114.8 MB
------------------------------------------------------------------------------
                         ORCA GEOMETRY RELAXATION STEP
------------------------------------------------------------------------------

Reading the OPT-File                    .... done
Getting information on internals        .... done
Copying old internal coords+grads       .... done
Making the new internal coordinates     .... (new redundants).... done
Validating the new internal coordinates .... (new redundants).... done
Calculating the B-matrix                .... done
Calculating the G,G- and P matrices     .... done
Transforming gradient to internals      .... done
Projecting the internal gradient        .... done
Number of atoms                         ....  15
Number of internal coordinates          ....  68
Current Energy                          ....  -304.517194211 Eh
Current gradient norm                   ....     0.170737329 Eh/bohr
Maximum allowed component of the step   ....  0.300
Current trust radius                    ....  0.300
Evaluating the initial hessian          ....  (Almloef) done
Projecting the Hessian                  .... done
Forming the augmented Hessian           .... done
Diagonalizing the augmented Hessian     .... done
Last element of RFO vector              ....  0.940262158
Lowest eigenvalues of augmented Hessian:
 -0.059699511  0.014835993  0.014847827  0.016553804  0.018255200
Length of the computed step             ....  0.362081230
Warning: the length of the step is outside the trust region - taking restricted step instead
The input lambda is                     ....    -0.059700
   iter:   1  x=   -0.129580  g=    0.588186 f(x)=     0.041103
   iter:   2  x=   -0.151481  g=    0.375930 f(x)=     0.008233
   iter:   3  x=   -0.152974  g=    0.331907 f(x)=     0.000496
   iter:   4  x=   -0.152981  g=    0.329166 f(x)=     0.000002
   iter:   5  x=   -0.152981  g=    0.329155 f(x)=     0.000000
   iter:   6  x=   -0.152981  g=    0.329155 f(x)=     0.000000
The output lambda is                    ....    -0.152981 (6 iterations)
The final length of the internal step   ....  0.300000000
Converting the step to cartesian space:
 Initial RMS(Int)=    0.0363803438
Transforming coordinates:
 Iter   0:  RMS(Cart)=    0.1067122450 RMS(Int)=    1.5239929162
 Iter   1:  RMS(Cart)=    0.0011806103 RMS(Int)=    0.0005992939
 Iter   2:  RMS(Cart)=    0.0000343355 RMS(Int)=    0.0000215766
 Iter   3:  RMS(Cart)=    0.0000007056 RMS(Int)=    0.0000004950
 Iter   4:  RMS(Cart)=    0.0000000174 RMS(Int)=    0.0000000111
done
Storing new coordinates                 .... done

                                .--------------------.
          ----------------------|Geometry convergence|-------------------------
          Item                value                   Tolerance       Converged
          ---------------------------------------------------------------------
          RMS gradient        0.0201011943            0.0001000000      NO
          MAX gradient        0.0975867898            0.0003000000      NO
          RMS step            0.0363803438            0.0020000000      NO
          MAX step            0.1600954108            0.0040000000      NO
          ........................................................
          Max(Bonds)      0.0847      Max(Angles)    3.33
          Max(Dihed)        0.26      Max(Improp)    0.00
          ---------------------------------------------------------------------

The optimization has not yet converged - more geometry cycles are needed


    ---------------------------------------------------------------------------
                         Redundant Internal Coordinates
                            (Angstroem and degrees)

        Definition                    Value    dE/dq     Step     New-Value
    ----------------------------------------------------------------------------
     1. B(C   1,C   0)                1.4694  0.097587 -0.0847    1.3847   
     2. B(N   2,C   1)                1.3488 -0.003198  0.0017    1.3506   
     3. B(C   3,N   2)                1.5059  0.075858 -0.0761    1.4298   
     4. B(N   4,C   3)                1.5059  0.075897 -0.0761    1.4297   
     5. B(N   4,C   0)                1.3488 -0.003269  0.0018    1.3506   
     6. B(H   5,C   0)                1.0846  0.003164 -0.0032    1.0813   
     7. B(H   6,C   1)                1.0846  0.003165 -0.0032    1.0813   
     8. B(C   7,N   2)                1.4700  0.024934 -0.0231    1.4469   
     9. B(H   8,C   7)                1.0960  0.002546 -0.0027    1.0933   
    10. B(H   9,C   7)                1.0960  0.003857 -0.0040    1.0919   
    11. B(H  10,C   7)                1.0960  0.004946 -0.0052    1.0908   
    12. B(C  11,N   4)                1.4700  0.024788 -0.0230    1.4470   
    13. B(H  12,C  11)                1.0960  0.002543 -0.0027    1.0933   
    14. B(H  13,C  11)                1.0960  0.003880 -0.0041    1.0919   
    15. B(H  14,C  11)                1.0960  0.004953 -0.0052    1.0908   
    16. A(N   4,C   0,H   5)          126.29 -0.003751    0.44    126.73   
    17. A(C   1,C   0,N   4)          109.31  0.015805   -1.87    107.44   
    18. A(C   1,C   0,H   5)          124.40 -0.012054    1.43    125.83   
    19. A(C   0,C   1,N   2)          109.31  0.015852   -1.88    107.43   
    20. A(N   2,C   1,H   6)          126.29 -0.003762    0.44    126.73   
    21. A(C   0,C   1,H   6)          124.40 -0.012089    1.43    125.84   
    22. A(C   1,N   2,C   3)          109.05 -0.030746    3.33    112.38   
    23. A(C   1,N   2,C   7)          125.48  0.008986   -0.92    124.55   
    24. A(C   3,N   2,C   7)          125.48  0.021760   -2.41    123.07   
    25. A(N   2,C   3,N   4)          103.28  0.029786   -2.91    100.37   
[...]
      4       0.015139  -0.000009   0.000053   0.002559  -0.017317  -0.009876
      5       0.005711   0.000375  -0.000103   0.121532   0.026201   0.039473
      6       0.000013   0.013552  -0.008880   0.001790  -0.000222   0.001137
      7      -0.010402  -0.000008   0.000105   0.063846  -0.033722   0.069838
      8      -0.013700  -0.000238  -0.000013  -0.125520  -0.025009  -0.032444
      9      -0.000004  -0.000002  -0.000005  -0.001603   0.000094  -0.001136
     10      -0.002622  -0.000233   0.000042  -0.085339   0.023095  -0.060625
     11      -0.002873   0.000169  -0.000112   0.059206   0.023445   0.043938
     12       0.000048  -0.007817  -0.014201   0.001969   0.000008   0.001221
     13      -0.006472   0.000530   0.000078   0.139179  -0.020981   0.053963
     14      -0.015080  -0.000093  -0.000049  -0.015022  -0.033362  -0.058125
     15       0.000065  -0.003335  -0.001062   0.004005  -0.000285   0.001538
     16       0.021911   0.000962  -0.000120   0.310867  -0.032732   0.130673
     17       0.023273  -0.000093   0.000055  -0.006888  -0.015598   0.009517
     18      -0.000005   0.003462   0.000605   0.003955  -0.000026   0.001609
     19       0.015504   0.000302  -0.000035   0.120561  -0.010351   0.038217
     20       0.023511  -0.000915   0.000259  -0.287184  -0.012937  -0.128670
     21       0.001273   0.042170  -0.025007  -0.000663  -0.000491   0.000297
     22       0.047218  -0.000733   0.000420  -0.033046  -0.034431   0.022565
     23      -0.072312   0.000509  -0.000292   0.002104   0.000647   0.000596
     24       0.065303  -0.043733   0.026111  -0.169198  -0.290445   0.250920
     25      -0.064975   0.084400  -0.049839   0.219178   0.403807  -0.356314
     26       0.351511   0.416358  -0.251313   0.196051  -0.010046   0.097388
     27      -0.073256  -0.035730   0.021307   0.171060   0.299900  -0.260831
     28      -0.063727  -0.080454   0.047510   0.216307   0.397398  -0.350658
     29       0.348663  -0.417225   0.252317   0.204544  -0.002962   0.092006
     30      -0.007775  -0.606394   0.364174  -0.001515  -0.001816   0.000645
     31      -0.399619   0.006538  -0.004204  -0.319838  -0.185707   0.076861
     32       0.232687  -0.005226   0.003326   0.201436   0.112454  -0.044235
     33      -0.001361  -0.025567  -0.041826  -0.000350   0.000424   0.000356
     34      -0.088201   0.000352   0.000581  -0.012973   0.012576   0.009614
     35       0.017905  -0.000179  -0.000380   0.028592  -0.029733  -0.025492
     36      -0.066849   0.025143   0.041771  -0.156527   0.261242   0.288423
     37       0.360075   0.213655   0.358016  -0.113034  -0.126413  -0.242039
     38       0.071440   0.138244   0.229560  -0.263132   0.341169   0.345506
     39       0.075058   0.022947   0.037434   0.158416  -0.271081  -0.301433
     40       0.358005  -0.215365  -0.358487  -0.115191  -0.120335  -0.234683
     41       0.072628  -0.139331  -0.229648  -0.258880   0.335502   0.339535
     42       0.007991   0.365411   0.605487  -0.007678   0.004194   0.002257
     43       0.373719  -0.006009  -0.008254  -0.298831   0.170398   0.092032
     44      -0.294216   0.004380   0.006023   0.218504  -0.128769  -0.072336
                 36         37         38         39         40         41    
      0       0.005857   0.000007  -0.000014  -0.000273   0.000024  -0.000005
      1       0.343554   0.000369  -0.000939   0.000004   0.000000  -0.000109
      2      -0.173755  -0.000178   0.000275  -0.000003   0.000000   0.000428
      3      -0.005834   0.000004   0.000014  -0.000006   0.000271  -0.000001
      4      -0.288536   0.000228   0.000631   0.000000  -0.000003   0.000195
      5       0.254239  -0.000186  -0.000797  -0.000000   0.000002   0.000445
      6       0.002081  -0.000011  -0.000007  -0.000081   0.000082  -0.000003
      7       0.130391  -0.000614  -0.000142   0.000001   0.000001  -0.000636
      8      -0.053721   0.000255   0.000545  -0.000000  -0.000001  -0.000467
      9       0.000004   0.000022   0.000001   0.000231  -0.000247  -0.000001
     10      -0.027505   0.001235   0.000398  -0.000003   0.000003  -0.000116
     11      -0.041122  -0.000875   0.000423  -0.000000  -0.000002   0.000039
     12      -0.002185  -0.000011   0.000005  -0.000074   0.000087   0.000002
     13      -0.098616  -0.000526   0.000500   0.000002  -0.000001   0.000162
     14       0.101617   0.000471   0.000117  -0.000001   0.000000   0.000017
     15      -0.002253  -0.000094   0.000032   0.001096  -0.000723   0.000031
     16      -0.401035  -0.002105   0.000875  -0.000018   0.000008   0.000679
     17      -0.326991   0.007764  -0.002374   0.000013  -0.000002  -0.002732
     18       0.002243  -0.000088  -0.000041   0.000651  -0.001130  -0.000036
     19      -0.156329  -0.007619  -0.003382  -0.000013  -0.000003  -0.002763
     20      -0.491162  -0.000924  -0.000178   0.000005  -0.000011  -0.000019
     21      -0.000279  -0.000439  -0.000494  -0.003089  -0.093828  -0.000222
     22      -0.026993  -0.028854  -0.032500   0.000036   0.001076  -0.064973
     23      -0.004251   0.016448   0.018557  -0.000027  -0.000796  -0.062811
     24       0.061823   0.359622   0.404167   0.019014   0.573297   0.218680
     25      -0.115694   0.240116   0.270209   0.013555   0.407711   0.136424
     26       0.110518   0.009066   0.009814   0.000597   0.019910  -0.001077
     27      -0.066452  -0.354610  -0.398531   0.018702   0.563574  -0.214904
     28      -0.114194   0.248637   0.279793  -0.013985  -0.420367   0.140978
     29       0.109283   0.002638   0.002589  -0.000255  -0.009636  -0.005019
     30       0.000861   0.000263   0.000295  -0.000599  -0.019570  -0.000988
     31       0.038724  -0.145597  -0.163025  -0.000003  -0.000177   0.507189
     32      -0.051255  -0.212185  -0.237603  -0.000020  -0.000773   0.751416
     33       0.000337  -0.000646   0.000578   0.093801  -0.003135   0.000055
     34       0.006052  -0.029039   0.025936  -0.001290   0.000044  -0.006857
     35      -0.026696   0.023547  -0.020995   0.000869  -0.000029  -0.016462
     36      -0.061941   0.405701  -0.361171  -0.573900   0.019034  -0.042351
     37       0.146137   0.089922  -0.080478  -0.131227   0.004281  -0.009832
     38      -0.067256  -0.254310   0.226559   0.384879  -0.012757   0.024236
     39       0.067095  -0.397797   0.354104  -0.562754   0.018673   0.041748
     40       0.144384   0.100524  -0.089911   0.146365  -0.004785  -0.010986
     41      -0.066020  -0.261908   0.233310  -0.396083   0.013133   0.025167
     42      -0.000954  -0.000180   0.000159   0.019609  -0.000700  -0.000087
     43      -0.061849   0.159968  -0.141916   0.000209  -0.000009   0.101157
     44       0.017062   0.237956  -0.211086   0.000873  -0.000033   0.148009
                 42         43         44    
      0      -0.000004   0.000593  -0.000752
      1      -0.000416   0.005788  -0.013827
      2      -0.000187  -0.060509   0.067217
      3      -0.000006   0.000602   0.000740
      4      -0.000394   0.059363   0.066680
      5       0.000120   0.017187   0.011770
      6       0.000001   0.000006   0.000017
      7      -0.000212   0.000051  -0.000544
      8      -0.000357  -0.000672  -0.002710
      9      -0.000003  -0.000028   0.000000
     10      -0.000137  -0.001554  -0.000587
     11       0.000110   0.001042  -0.000885
     12      -0.000005   0.000006  -0.000016
     13       0.000270   0.000609  -0.002327
     14       0.000832   0.000173  -0.001509
     15      -0.000023  -0.006968   0.007145
     16      -0.000811  -0.080208   0.088014
     17       0.001538   0.694518  -0.703570
     18       0.000021  -0.007054  -0.007019
     19       0.001905  -0.684992  -0.675931
     20       0.000419  -0.185087  -0.175782
     21      -0.000044   0.000007   0.000003
     22      -0.012823   0.000473   0.000474
     23      -0.012352  -0.000119   0.000386
     24       0.043466  -0.003955  -0.002428
     25       0.027218  -0.002914  -0.001724
     26      -0.000239   0.000607   0.000648
     27      -0.042716   0.003865   0.002368
     28       0.028126  -0.002996  -0.001771
     29      -0.001022   0.000679   0.000692
     30      -0.000194  -0.000019  -0.000022
     31       0.099889   0.001062  -0.002316
     32       0.147988   0.003283  -0.000497
     33      -0.000283   0.000007  -0.000003
     34       0.034582   0.000291   0.000180
     35       0.083451  -0.000384   0.000585
     36       0.216588  -0.003933   0.002476
     37       0.050589  -0.001615   0.001253
     38      -0.124396   0.002470  -0.001389
     39      -0.213476   0.003842  -0.002416
     40       0.056485  -0.001719   0.001319
     41      -0.129141   0.002546  -0.001438
     42       0.000438  -0.000015   0.000028
     43      -0.512200  -0.002699   0.000474
     44      -0.749437  -0.002291  -0.002242


-----------
IR SPECTRUM
-----------

 Mode   freq       eps      Int      T**2         TX        TY        TZ
       cm**-1   L/(mol*cm) km/mol    a.u.
----------------------------------------------------------------------------
  6:     99.93   0.000006    0.03  0.000020  ( 0.004499 -0.000167 -0.000025)
  7:    100.87   0.000030    0.15  0.000094  (-0.009713  0.000079 -0.000098)
  8:    194.52   0.005106   25.80  0.008192  ( 0.090498 -0.001243  0.000684)
  9:    271.54   0.000000    0.00  0.000000  (-0.000103 -0.000174 -0.000157)
 10:    289.68   0.001112    5.62  0.001198  ( 0.000013 -0.019356 -0.028689)
 11:    436.82   0.002679   13.54  0.001914  (-0.000665 -0.036197  0.024555)
 12:    627.95   0.000547    2.76  0.000272  ( 0.000046  0.009260  0.013637)
 13:    633.58   0.000000    0.00  0.000000  (-0.000003  0.000073  0.000148)
 14:    636.37   0.000000    0.00  0.000000  ( 0.000135 -0.000061  0.000029)
 15:    730.17   0.016627   84.03  0.007106  ( 0.084290 -0.001044  0.000688)
 16:    759.50   0.005391   27.24  0.002215  (-0.000756 -0.038874  0.026521)
 17:    828.52   0.000000    0.00  0.000000  ( 0.000001  0.000035 -0.000030)
 18:   1018.28   0.000421    2.13  0.000129  (-0.000159 -0.009387  0.006385)
 19:   1029.56   0.000013    0.07  0.000004  ( 0.000012 -0.001192 -0.001597)
 20:   1078.36   0.000262    1.32  0.000076  ( 0.000013  0.005100  0.007058)
 21:   1084.44   0.000149    0.75  0.000043  (-0.000087 -0.005172  0.004022)
 22:   1103.56   0.001907    9.64  0.000539  ( 0.000015 -0.012867 -0.019334)
 23:   1149.68   0.000000    0.00  0.000000  ( 0.000079 -0.000091  0.000064)
 24:   1151.66   0.000001    0.01  0.000000  ( 0.000556 -0.000023  0.000026)
 25:   1239.36   0.011995   60.62  0.003020  ( 0.000846  0.045485 -0.030833)
 26:   1352.79   0.000525    2.65  0.000121  ( 0.000159  0.009141 -0.006122)
 27:   1375.28   0.000204    1.03  0.000046  ( 0.000017  0.003771  0.005670)
 28:   1414.39   0.000131    0.66  0.000029  (-0.000002 -0.003000 -0.004469)
 29:   1425.70   0.005232   26.44  0.001145  ( 0.000473  0.028146 -0.018779)
 30:   1438.71   0.000797    4.03  0.000173  (-0.000051  0.006829  0.011236)
 31:   1474.59   0.000274    1.38  0.000058  (-0.007610 -0.000105  0.000058)
 32:   1475.84   0.004441   22.44  0.000939  ( 0.030640 -0.000403  0.000198)
 33:   1482.43   0.008006   40.46  0.001685  (-0.000584 -0.033590  0.023595)
 34:   1493.69   0.006649   33.60  0.001389  ( 0.000065  0.022136  0.029987)
 35:   1498.41   0.001103    5.57  0.000230  (-0.000212 -0.011067  0.010353)
 36:   1622.36   0.000080    0.40  0.000015  (-0.000010  0.002257  0.003211)
 37:   3056.80   0.024077  121.68  0.002458  (-0.000769 -0.041012  0.027846)
 38:   3057.51   0.000087    0.44  0.000009  ( 0.000002 -0.002142  0.002074)
 39:   3122.44   0.003937   19.89  0.000393  ( 0.019833 -0.000287  0.000198)
 40:   3122.84   0.004547   22.98  0.000454  (-0.021315  0.000232 -0.000182)
 41:   3175.54   0.001026    5.18  0.000101  (-0.000019 -0.006756 -0.007426)
 42:   3176.14   0.000479    2.42  0.000047  (-0.000020  0.002098  0.006531)
 43:   3271.28   0.000512    2.59  0.000049  (-0.000112 -0.005838  0.003840)
 44:   3292.30   0.000032    0.16  0.000003  ( 0.000006  0.000981  0.001436)

* The epsilon (eps) is given for a Dirac delta lineshape.
** The dipole moment derivative (T) already includes vibrational overlap.

The first frequency considered to be a vibration is 6
The total number of vibrations considered is 39


--------------------------
THERMOCHEMISTRY AT 433.15K
--------------------------

Temperature         ... 433.15 K
Pressure            ... 1.00 atm
Total Mass          ... 96.13 AMU

Throughout the following assumptions are being made:
  (1) The electronic state is orbitally nondegenerate
  (2) There are no thermally accessible electronically excited states
  (3) Hindered rotations indicated by low frequency modes are not
      treated as such but are treated as vibrations and this may
      cause some error
  (4) All equations used are the standard statistical mechanics
      equations for an ideal gas
  (5) All vibrations are strictly harmonic

freq.      99.93  E(vib)   ...       0.73 
freq.     100.87  E(vib)   ...       0.72 
freq.     194.52  E(vib)   ...       0.61 
freq.     271.54  E(vib)   ...       0.53 
freq.     289.68  E(vib)   ...       0.51 
freq.     436.82  E(vib)   ...       0.38 
freq.     627.95  E(vib)   ...       0.25 
freq.     633.58  E(vib)   ...       0.25 
freq.     636.37  E(vib)   ...       0.25 
freq.     730.17  E(vib)   ...       0.20 
freq.     759.50  E(vib)   ...       0.19 
freq.     828.52  E(vib)   ...       0.16 
freq.    1018.28  E(vib)   ...       0.10 
freq.    1029.56  E(vib)   ...       0.10 
freq.    1078.36  E(vib)   ...       0.09 
freq.    1084.44  E(vib)   ...       0.09 
freq.    1103.56  E(vib)   ...       0.08 
freq.    1149.68  E(vib)   ...       0.07 
freq.    1151.66  E(vib)   ...       0.07 
freq.    1239.36  E(vib)   ...       0.06 
freq.    1352.79  E(vib)   ...       0.04 
freq.    1375.28  E(vib)   ...       0.04 
freq.    1414.39  E(vib)   ...       0.04 
freq.    1425.70  E(vib)   ...       0.04 
freq.    1438.71  E(vib)   ...       0.03 
freq.    1474.59  E(vib)   ...       0.03 
freq.    1475.84  E(vib)   ...       0.03 
freq.    1482.43  E(vib)   ...       0.03 
freq.    1493.69  E(vib)   ...       0.03 
freq.    1498.41  E(vib)   ...       0.03 
freq.    1622.36  E(vib)   ...       0.02 
freq.    3056.80  E(vib)   ...       0.00 
freq.    3057.51  E(vib)   ...       0.00 
freq.    3122.44  E(vib)   ...       0.00 
freq.    3122.84  E(vib)   ...       0.00 
freq.    3175.54  E(vib)   ...       0.00 
freq.    3176.14  E(vib)   ...       0.00 
freq.    3271.28  E(vib)   ...       0.00 
freq.    3292.30  E(vib)   ...       0.00 

------------
INNER ENERGY
------------

The inner energy is: U= E(el) + E(ZPE) + E(vib) + E(rot) + E(trans)
    E(el)   - is the total energy from the electronic structure calculation
              = E(kin-el) + E(nuc-el) + E(el-el) + E(nuc-nuc)
    E(ZPE)  - the the zero temperature vibrational energy from the frequency calculation
    E(vib)  - the the finite temperature correction to E(ZPE) due to population
              of excited vibrational states
    E(rot)  - is the rotational thermal energy
    E(trans)- is the translational thermal energy

Summary of contributions to the inner energy U:
Electronic energy                ...   -304.56504386 Eh
Zero point energy                ...      0.12710666 Eh      79.76 kcal/mol
Thermal vibrational correction   ...      0.00929625 Eh       5.83 kcal/mol
Thermal rotational correction    ...      0.00205755 Eh       1.29 kcal/mol
Thermal translational correction ...      0.00205755 Eh       1.29 kcal/mol
-----------------------------------------------------------------------
Total thermal energy                   -304.42452586 Eh


Summary of corrections to the electronic energy:
(perhaps to be used in another calculation)
Total thermal correction                  0.01341135 Eh       8.42 kcal/mol
Non-thermal (ZPE) correction              0.12710666 Eh      79.76 kcal/mol
-----------------------------------------------------------------------
Total correction                          0.14051800 Eh      88.18 kcal/mol


--------
ENTHALPY
--------

The enthalpy is H = U + kB*T
                kB is Boltzmann's constant
Total free energy                 ...   -304.42452586 Eh 
Thermal Enthalpy correction       ...      0.00137174 Eh       0.86 kcal/mol
-----------------------------------------------------------------------
Total Enthalpy                    ...   -304.42315412 Eh


Note: Only C1 symmetry has been detected, increase convergence thresholds 
      if your molecule has a higher symmetry. Symmetry factor of 1.0 is   
      used for the rotational entropy correction. 
 

Note: Rotational entropy computed according to Herzberg 
Infrared and Raman Spectra, Chapter V,1, Van Nostrand Reinhold, 1945 
Point Group:  C1, Symmetry Number:   1  
Rotational constants in cm-1:     0.236850     0.070800     0.055653 

Vibrational entropy computed according to the QRRHO of S. Grimme
Chem.Eur.J. 2012 18 9955


-------
ENTROPY
-------

The entropy contributions are T*S = T*(S(el)+S(vib)+S(rot)+S(trans))
     S(el)   - electronic entropy
     S(vib)  - vibrational entropy
     S(rot)  - rotational entropy
     S(trans)- translational entropy
The entropies will be listed as multiplied by the temperature to get
units of energy

Electronic entropy                ...      0.00000000 Eh      0.00 kcal/mol
Vibrational entropy               ...      0.01612468 Eh     10.12 kcal/mol
Rotational entropy                ...      0.01937077 Eh     12.16 kcal/mol
Translational entropy             ...      0.02861563 Eh     17.96 kcal/mol
-----------------------------------------------------------------------
Final entropy term                ...      0.06411108 Eh     40.23 kcal/mol

In case the symmetry of your molecule has not been determined correctly
or in case you have a reason to use a different symmetry number we print 
out the resulting rotational entropy values for sn=1,12 :
 --------------------------------------------------------
|  sn= 1 | S(rot)=       0.01937077 Eh     12.16 kcal/mol|
|  sn= 2 | S(rot)=       0.01841998 Eh     11.56 kcal/mol|
|  sn= 3 | S(rot)=       0.01786380 Eh     11.21 kcal/mol|
|  sn= 4 | S(rot)=       0.01746919 Eh     10.96 kcal/mol|
|  sn= 5 | S(rot)=       0.01716310 Eh     10.77 kcal/mol|
|  sn= 6 | S(rot)=       0.01691301 Eh     10.61 kcal/mol|
|  sn= 7 | S(rot)=       0.01670157 Eh     10.48 kcal/mol|
|  sn= 8 | S(rot)=       0.01651840 Eh     10.37 kcal/mol|
|  sn= 9 | S(rot)=       0.01635684 Eh     10.26 kcal/mol|
|  sn=10 | S(rot)=       0.01621231 Eh     10.17 kcal/mol|
|  sn=11 | S(rot)=       0.01608158 Eh     10.09 kcal/mol|
|  sn=12 | S(rot)=       0.01596222 Eh     10.02 kcal/mol|
 --------------------------------------------------------


-------------------
GIBBS FREE ENERGY
-------------------

The Gibbs free energy is G = H - T*S

Total enthalpy                    ...   -304.42315412 Eh 
Total entropy correction          ...     -0.06411108 Eh    -40.23 kcal/mol
-----------------------------------------------------------------------
Final Gibbs free energy         ...   -304.48726520 Eh

For completeness - the Gibbs free energy minus the electronic energy
G-E(el)                           ...      0.07777866 Eh     48.81 kcal/mol


Timings for individual modules:

Sum of individual times         ...     4346.611 sec (=  72.444 min)
GTO integral calculation        ...        7.304 sec (=   0.122 min)   0.2 %
SCF iterations                  ...     1882.046 sec (=  31.367 min)  43.3 %
SCF Gradient evaluation         ...      613.085 sec (=  10.218 min)  14.1 %
Geometry relaxation             ...        0.821 sec (=   0.014 min)   0.0 %
Analytical frequency calculation...     1843.355 sec (=  30.723 min)  42.4 %
                             ****ORCA TERMINATED NORMALLY****
TOTAL RUN TIME: 0 days 1 hours 12 minutes 30 seconds 3 msec
